nqpoint: 303    
npath: 3      
segment_nqpoint:
- 101
- 101
- 101
reciprocal_lattice:
- [   0.28089888,   0.16217704,   0.00000000 ] # a*
- [   0.00000000,   0.32435408,   0.00000000 ] # b*
- [   0.00000000,   0.00000000,   0.03125000 ] # c*
natom: 3      
lattice:
- [     3.560000000000000,     0.000000000000000,     0.000000000000000 ] # a
- [    -1.780000000000000,     3.083050437472601,     0.000000000000000 ] # b
- [     0.000000000000000,     0.000000000000000,    32.000000000000000 ] # c
points:
- symbol: Mo # 1
  coordinates: [  0.000000000000000,  0.000000000000000,  0.500000000000000 ]
  mass: 95.960000
- symbol: Te # 2
  coordinates: [  0.666666666666672,  0.333333333333336,  0.556476514759575 ]
  mass: 127.600000
- symbol: Te # 3
  coordinates: [  0.666666666666672,  0.333333333333336,  0.443523485240425 ]
  mass: 127.600000

phonon:
- q-position: [    0.0000000,    0.0000000,    0.0000000 ]
  distance:    0.0000000
  band:
  - # 1
    frequency:    0.0008495907
    eigenvector:
    - # atom 1
      - [ -0.00000000007716,  0.00000000000000 ]
      - [  0.00000000009063,  0.00000000000000 ]
      - [  0.52276826431236,  0.00000000000000 ]
    - # atom 2
      - [ -0.00000000008897,  0.00000000000000 ]
      - [  0.00000000010451,  0.00000000000000 ]
      - [  0.60279073559065,  0.00000000000000 ]
    - # atom 3
      - [ -0.00000000008897,  0.00000000000000 ]
      - [  0.00000000010451,  0.00000000000000 ]
      - [  0.60279073559065,  0.00000000000000 ]
  - # 2
    frequency:    0.0018429917
    eigenvector:
    - # atom 1
      - [ -0.35166876850511,  0.00000000000000 ]
      - [  0.38680250842766,  0.00000000000000 ]
      - [ -0.00000000011896,  0.00000000000000 ]
    - # atom 2
      - [ -0.40549982196715,  0.00000000000000 ]
      - [  0.44601159486127,  0.00000000000000 ]
      - [ -0.00000000013717,  0.00000000000000 ]
    - # atom 3
      - [ -0.40549982196715,  0.00000000000000 ]
      - [  0.44601159486127,  0.00000000000000 ]
      - [ -0.00000000013717,  0.00000000000000 ]
  - # 3
    frequency:    0.0018429917
    eigenvector:
    - # atom 1
      - [  0.38680250842766,  0.00000000000000 ]
      - [  0.35166876850511,  0.00000000000000 ]
      - [ -0.00000000000388,  0.00000000000000 ]
    - # atom 2
      - [  0.44601159486127,  0.00000000000000 ]
      - [  0.40549982196715,  0.00000000000000 ]
      - [ -0.00000000000447,  0.00000000000000 ]
    - # atom 3
      - [  0.44601159486127,  0.00000000000000 ]
      - [  0.40549982196715,  0.00000000000000 ]
      - [ -0.00000000000447,  0.00000000000000 ]
  - # 4
    frequency:    3.4152260726
    eigenvector:
    - # atom 1
      - [  0.00000000000000,  0.00000000000000 ]
      - [ -0.00000000000000,  0.00000000000000 ]
      - [  0.00000000000000,  0.00000000000000 ]
    - # atom 2
      - [  0.45190836311522,  0.00000000000000 ]
      - [ -0.54385552433208,  0.00000000000000 ]
      - [ -0.00000000000000,  0.00000000000000 ]
    - # atom 3
      - [ -0.45190836311522,  0.00000000000000 ]
      - [  0.54385552433208,  0.00000000000000 ]
      - [ -0.00000000000000,  0.00000000000000 ]
  - # 5
    frequency:    3.4152260726
    eigenvector:
    - # atom 1
      - [  0.00000000000000,  0.00000000000000 ]
      - [ -0.00000000000000,  0.00000000000000 ]
      - [ -0.00000000000000,  0.00000000000000 ]
    - # atom 2
      - [  0.54385552433208,  0.00000000000000 ]
      - [  0.45190836311522,  0.00000000000000 ]
      - [ -0.00000000000000,  0.00000000000000 ]
    - # atom 3
      - [ -0.54385552433208,  0.00000000000000 ]
      - [ -0.45190836311522,  0.00000000000000 ]
      - [ -0.00000000000000,  0.00000000000000 ]
  - # 6
    frequency:    5.0464850985
    eigenvector:
    - # atom 1
      - [  0.00000000000000,  0.00000000000000 ]
      - [ -0.00000000000000,  0.00000000000000 ]
      - [  0.00000000000000,  0.00000000000000 ]
    - # atom 2
      - [ -0.00000000000000,  0.00000000000000 ]
      - [  0.00000000000000,  0.00000000000000 ]
      - [  0.70710678118655,  0.00000000000000 ]
    - # atom 3
      - [  0.00000000000000,  0.00000000000000 ]
      - [ -0.00000000000000,  0.00000000000000 ]
      - [ -0.70710678118655,  0.00000000000000 ]
  - # 7
    frequency:    6.8718681235
    eigenvector:
    - # atom 1
      - [ -0.15713703816107,  0.00000000000000 ]
      - [  0.83786684381835,  0.00000000000000 ]
      - [  0.00000000000000,  0.00000000000000 ]
    - # atom 2
      - [  0.06813836369714,  0.00000000000000 ]
      - [ -0.36331902651333,  0.00000000000000 ]
      - [ -0.00000000000000,  0.00000000000000 ]
    - # atom 3
      - [  0.06813836369714,  0.00000000000000 ]
      - [ -0.36331902651333,  0.00000000000000 ]
      - [ -0.00000000000000,  0.00000000000000 ]
  - # 8
    frequency:    6.8718681235
    eigenvector:
    - # atom 1
      - [ -0.83786684381836,  0.00000000000000 ]
      - [ -0.15713703816107,  0.00000000000000 ]
      - [ -0.00000000000000,  0.00000000000000 ]
    - # atom 2
      - [  0.36331902651333,  0.00000000000000 ]
      - [  0.06813836369714,  0.00000000000000 ]
      - [ -0.00000000000000,  0.00000000000000 ]
    - # atom 3
      - [  0.36331902651333,  0.00000000000000 ]
      - [  0.06813836369714,  0.00000000000000 ]
      - [  0.00000000000000,  0.00000000000000 ]
  - # 9
    frequency:    8.5221593962
    eigenvector:
    - # atom 1
      - [ -0.00000000000000,  0.00000000000000 ]
      - [  0.00000000000000,  0.00000000000000 ]
      - [ -0.85247483354516,  0.00000000000000 ]
    - # atom 2
      - [  0.00000000000000,  0.00000000000000 ]
      - [ -0.00000000000000,  0.00000000000000 ]
      - [  0.36965298468439,  0.00000000000000 ]
    - # atom 3
      - [ -0.00000000000000,  0.00000000000000 ]
      - [ -0.00000000000000,  0.00000000000000 ]
      - [  0.36965298468439,  0.00000000000000 ]

- q-position: [    0.0033333,    0.0033333,    0.0000000 ]
  distance:    0.0018727
  band:
  - # 1
    frequency:    0.0109440287
    eigenvector:
    - # atom 1
      - [ -0.00000000000012,  0.00000000000000 ]
      - [  0.00000000000007,  0.00000000000001 ]
      - [  0.52165953132046, -0.03311310336282 ]
    - # atom 2
      - [ -0.00046034077241, -0.00636099885007 ]
      - [ -0.00066722186188, -0.01102583222888 ]
      - [  0.60147076840132, -0.03817923861828 ]
    - # atom 3
      - [  0.00046034077214,  0.00636099885007 ]
      - [  0.00066722186203,  0.01102583222891 ]
      - [  0.60147076840132, -0.03817923861828 ]
  - # 2
    frequency:    0.0447650104
    eigenvector:
    - # atom 1
      - [  0.45270589858430,  0.00000000000000 ]
      - [ -0.26136802788991,  0.00138867115896 ]
      - [  0.00000000000013, -0.00000000000002 ]
    - # atom 2
      - [  0.52203925801193, -0.00146485358154 ]
      - [ -0.30140187254972, -0.00093584426237 ]
      - [ -0.00001433677013,  0.00000001904302 ]
    - # atom 3
      - [  0.52203925801193, -0.00146485358154 ]
      - [ -0.30140187254972, -0.00093584426236 ]
      - [  0.00001433677044, -0.00000001904306 ]
  - # 3
    frequency:    0.0729889620
    eigenvector:
    - # atom 1
      - [  0.26138186508058,  0.00000000000000 ]
      - [  0.45271707427271, -0.00240676719347 ]
      - [  0.00000000000000,  0.00000000000001 ]
    - # atom 2
      - [  0.30137920710497, -0.00253815654053 ]
      - [  0.52201640537312, -0.00130974487639 ]
      - [ -0.00001860669267, -0.00466662618472 ]
    - # atom 3
      - [  0.30137920710497, -0.00253815654053 ]
      - [  0.52201640537312, -0.00130974487639 ]
      - [  0.00001860669267,  0.00466662618475 ]
  - # 4
    frequency:    3.4153839775
    eigenvector:
    - # atom 1
      - [  0.00000000000000,  0.00000000000000 ]
      - [ -0.00000000000000,  0.00000000000000 ]
      - [ -0.00001706988460,  0.00000007133014 ]
    - # atom 2
      - [ -0.61235928809641,  0.00368384800493 ]
      - [  0.35355665600229,  0.00047110091016 ]
      - [ -0.00002146246555,  0.00000008968546 ]
    - # atom 3
      - [  0.61235928809641, -0.00368384800493 ]
      - [ -0.35355665600229, -0.00047110091016 ]
      - [ -0.00002146246555,  0.00000008968546 ]
  - # 5
    frequency:    3.4159770045
    eigenvector:
    - # atom 1
      - [  0.00000000000000,  0.00000000000000 ]
      - [  0.00000000000000, -0.00000000000000 ]
      - [ -0.00026420859759, -0.00571915372790 ]
    - # atom 2
      - [  0.35302425095559, -0.01825856366536 ]
      - [  0.61166352100885, -0.02713136463943 ]
      - [ -0.00057590685820, -0.01246628567358 ]
    - # atom 3
      - [ -0.35302425095559,  0.01825856366536 ]
      - [ -0.61166352100885,  0.02713136463943 ]
      - [ -0.00057590685820, -0.01246628567358 ]
  - # 6
    frequency:    5.0461616240
    eigenvector:
    - # atom 1
      - [ -0.00310759599903,  0.00000000000000 ]
      - [ -0.00538183508240,  0.00006980732957 ]
      - [ -0.00000000000000,  0.00000000000000 ]
    - # atom 2
      - [  0.00408431668717, -0.00003553782197 ]
      - [  0.00707414980645, -0.00007123784132 ]
      - [  0.00687773257674,  0.70701248371662 ]
    - # atom 3
      - [  0.00408431668717, -0.00003553782197 ]
      - [  0.00707414980645, -0.00007123784132 ]
      - [ -0.00687773257674, -0.70701248371662 ]
  - # 7
    frequency:    6.8721358239
    eigenvector:
    - # atom 1
      - [ -0.42626791393004,  0.00000000000000 ]
      - [ -0.73804348511528, -0.01642720921730 ]
      - [ -0.00000000000000, -0.00000000000000 ]
    - # atom 2
      - [  0.18482579551736, -0.00155593523750 ]
      - [  0.31994881653594,  0.00802000361132 ]
      - [  0.00013377820544, -0.00801461381495 ]
    - # atom 3
      - [  0.18482579551736, -0.00155593523750 ]
      - [  0.31994881653594,  0.00802000361132 ]
      - [ -0.00013377820544,  0.00801461381495 ]
  - # 8
    frequency:    6.8719430458
    eigenvector:
    - # atom 1
      - [ -0.73825666159867,  0.00000000000000 ]
      - [  0.42617992227489,  0.00948416717788 ]
      - [  0.00000000000000,  0.00000000000000 ]
    - # atom 2
      - [  0.32008828939060, -0.00089835998340 ]
      - [ -0.18476864374232, -0.00566802146820 ]
      - [ -0.00012157338765, -0.00000067630777 ]
    - # atom 3
      - [  0.32008828939060, -0.00089835998340 ]
      - [ -0.18476864374232, -0.00566802146820 ]
      - [  0.00012157338765,  0.00000067630777 ]
  - # 9
    frequency:    8.5218133039
    eigenvector:
    - # atom 1
      - [  0.00000000000000,  0.00000000000000 ]
      - [ -0.00000000000000,  0.00000000000000 ]
      - [  0.85249008028432, -0.00165528489737 ]
    - # atom 2
      - [  0.00001225483339,  0.00153631568071 ]
      - [ -0.00000018613862,  0.00266101839151 ]
      - [ -0.36962008198355,  0.00071769344139 ]
    - # atom 3
      - [ -0.00001225483339, -0.00153631568071 ]
      - [  0.00000018613862, -0.00266101839151 ]
      - [ -0.36962008198355,  0.00071769344139 ]

- q-position: [    0.0066667,    0.0066667,    0.0000000 ]
  distance:    0.0037453
  band:
  - # 1
    frequency:    0.0221857378
    eigenvector:
    - # atom 1
      - [  0.00000000000003,  0.00000000000000 ]
      - [ -0.00000000000002,  0.00000000000000 ]
      - [ -0.52004201227304, -0.05096616589307 ]
    - # atom 2
      - [ -0.00101783729539,  0.01269916824640 ]
      - [ -0.00228157789279,  0.02194477663914 ]
      - [ -0.59948189712077, -0.05875158755925 ]
    - # atom 3
      - [  0.00101783729547, -0.01269916824640 ]
      - [  0.00228157789273, -0.02194477663913 ]
      - [ -0.59948189712077, -0.05875158755925 ]
  - # 2
    frequency:    0.0894722930
    eigenvector:
    - # atom 1
      - [  0.45263071271303,  0.00000000000000 ]
      - [ -0.26131909100019,  0.00277611340614 ]
      - [  0.00000000000004,  0.00000000000001 ]
    - # atom 2
      - [  0.52206122801108, -0.00292966571087 ]
      - [ -0.30142165523145, -0.00187233155778 ]
      - [ -0.00005735396394,  0.00000015232119 ]
    - # atom 3
      - [  0.52206122801108, -0.00292966571087 ]
      - [ -0.30142165523145, -0.00187233155778 ]
      - [  0.00005735396403, -0.00000015232118 ]
  - # 3
    frequency:    0.1458975556
    eigenvector:
    - # atom 1
      - [  0.26137449915337,  0.00000000000000 ]
      - [  0.45267541314484, -0.00482051288821 ]
      - [ -0.00000000000000, -0.00000000000000 ]
    - # atom 2
      - [  0.30133084214217, -0.00508197229249 ]
      - [  0.52196967039569, -0.00262409560192 ]
      - [ -0.00007458797617, -0.00933921669141 ]
    - # atom 3
      - [  0.30133084214217, -0.00508197229249 ]
      - [  0.52196967039570, -0.00262409560192 ]
      - [  0.00007458797616,  0.00933921669140 ]
  - # 4
    frequency:    3.4158575653
    eigenvector:
    - # atom 1
      - [ -0.00000000000000,  0.00000000000000 ]
      - [  0.00000000000000, -0.00000000000000 ]
      - [ -0.00006824856132,  0.00000155432144 ]
    - # atom 2
      - [ -0.61215004323335,  0.01619226427866 ]
      - [  0.35354331766162, -0.00415306799413 ]
      - [ -0.00008588382641,  0.00000195595438 ]
    - # atom 3
      - [  0.61215004323335, -0.01619226427866 ]
      - [ -0.35354331766161,  0.00415306799413 ]
      - [ -0.00008588382641,  0.00000195595438 ]
  - # 5
    frequency:    3.4182253743
    eigenvector:
    - # atom 1
      - [  0.00000000000000,  0.00000000000000 ]
      - [ -0.00000000000000,  0.00000000000000 ]
      - [  0.00060403233803,  0.01140771684959 ]
    - # atom 2
      - [ -0.35260330720538,  0.02256749009355 ]
      - [ -0.61120208309032,  0.03011268483348 ]
      - [  0.00131828996454,  0.02489714158397 ]
    - # atom 3
      - [  0.35260330720538, -0.02256749009355 ]
      - [  0.61120208309032, -0.03011268483348 ]
      - [  0.00131828996454,  0.02489714158397 ]
  - # 6
    frequency:    5.0451922101
    eigenvector:
    - # atom 1
      - [ -0.00620684922769,  0.00000000000000 ]
      - [ -0.01074514109417,  0.00027911776611 ]
      - [  0.00000000000000,  0.00000000000000 ]
    - # atom 2
      - [  0.00816661396943, -0.00014229765445 ]
      - [  0.01414423549632, -0.00028521610853 ]
      - [  0.01376686034039,  0.70672950165351 ]
    - # atom 3
      - [  0.00816661396943, -0.00014229765445 ]
      - [  0.01414423549632, -0.00028521610853 ]
      - [ -0.01376686034039, -0.70672950165351 ]
  - # 7
    frequency:    6.8729371332
    eigenvector:
    - # atom 1
      - [ -0.42636049183934,  0.00000000000000 ]
      - [ -0.73737773787605, -0.03289653843457 ]
      - [ -0.00000000000000, -0.00000000000000 ]
    - # atom 2
      - [  0.18482372039011, -0.00311200855320 ]
      - [  0.31940699277885,  0.01604906319203 ]
      - [  0.00053529277787, -0.01600412451107 ]
    - # atom 3
      - [  0.18482372039011, -0.00311200855320 ]
      - [  0.31940699277885,  0.01604906319203 ]
      - [ -0.00053529277787,  0.01600412451107 ]
  - # 8
    frequency:    6.8721673758
    eigenvector:
    - # atom 1
      - [ -0.73823235849047,  0.00000000000000 ]
      - [  0.42600705297018,  0.01899218687911 ]
      - [  0.00000000000000,  0.00000000000000 ]
    - # atom 2
      - [  0.31996554969651, -0.00179704114658 ]
      - [ -0.18459425351601, -0.01134366778635 ]
      - [ -0.00048647566704, -0.00000541997845 ]
    - # atom 3
      - [  0.31996554969651, -0.00179704114658 ]
      - [ -0.18459425351601, -0.01134366778635 ]
      - [  0.00048647566704,  0.00000541997845 ]
  - # 9
    frequency:    8.5207754676
    eigenvector:
    - # atom 1
      - [  0.00000000000000,  0.00000000000000 ]
      - [ -0.00000000000000, -0.00000000000000 ]
      - [  0.85253970512004, -0.00207390451256 ]
    - # atom 2
      - [  0.00004459613482,  0.00307317912329 ]
      - [ -0.00000848228996,  0.00532311091874 ]
      - [ -0.36952305072784,  0.00089890889280 ]
    - # atom 3
      - [ -0.00004459613482, -0.00307317912329 ]
      - [  0.00000848228996, -0.00532311091874 ]
      - [ -0.36952305072784,  0.00089890889280 ]

- q-position: [    0.0100000,    0.0100000,    0.0000000 ]
  distance:    0.0056180
  band:
  - # 1
    frequency:    0.0341112747
    eigenvector:
    - # atom 1
      - [  0.00000000000001,  0.00000000000000 ]
      - [ -0.00000000000000, -0.00000000000000 ]
      - [ -0.44480860732334,  0.27364606474572 ]
    - # atom 2
      - [  0.01042161084068,  0.01597242384995 ]
      - [  0.01705329377565,  0.02827869009785 ]
      - [ -0.51258028340796,  0.31533917085123 ]
    - # atom 3
      - [ -0.01042161084066, -0.01597242384995 ]
      - [ -0.01705329377565, -0.02827869009786 ]
      - [ -0.51258028340796,  0.31533917085123 ]
  - # 2
    frequency:    0.1341905587
    eigenvector:
    - # atom 1
      - [  0.45250545630157,  0.00000000000000 ]
      - [ -0.26123757786742,  0.00416109956103 ]
      - [  0.00000000000000, -0.00000000000001 ]
    - # atom 2
      - [  0.52209780093741, -0.00439439932342 ]
      - [ -0.30145459808331, -0.00281011285303 ]
      - [ -0.00012907239718,  0.00000051395510 ]
    - # atom 3
      - [  0.52209780093741, -0.00439439932342 ]
      - [ -0.30145459808331, -0.00281011285303 ]
      - [  0.00012907239719, -0.00000051395511 ]
  - # 3
    frequency:    0.2187229752
    eigenvector:
    - # atom 1
      - [  0.26136246888292,  0.00000000000000 ]
      - [  0.45260602277528, -0.00724820806603 ]
      - [  0.00000000000000,  0.00000000000000 ]
    - # atom 2
      - [  0.30124970051516, -0.00763709775102 ]
      - [  0.52189124425142, -0.00394763991851 ]
      - [ -0.00016842813744, -0.01402374292418 ]
    - # atom 3
      - [  0.30124970051516, -0.00763709775102 ]
      - [  0.52189124425142, -0.00394763991851 ]
      - [  0.00016842813745,  0.01402374292419 ]
  - # 4
    frequency:    3.4166464567
    eigenvector:
    - # atom 1
      - [ -0.00000000000000,  0.00000000000000 ]
      - [ -0.00000000000000, -0.00000000000000 ]
      - [  0.00015349356704,  0.00000405206636 ]
    - # atom 2
      - [  0.61222032226775,  0.01278433543326 ]
      - [ -0.35325979175260, -0.01517590430507 ]
      - [  0.00019342936857,  0.00000510632890 ]
    - # atom 3
      - [ -0.61222032226775, -0.01278433543326 ]
      - [  0.35325979175260,  0.01517590430507 ]
      - [  0.00019342936857,  0.00000510632890 ]
  - # 5
    frequency:    3.4219579804
    eigenvector:
    - # atom 1
      - [  0.00000000000000,  0.00000000000000 ]
      - [ -0.00000000000000, -0.00000000000000 ]
      - [ -0.00012219789684,  0.01706845833733 ]
    - # atom 2
      - [ -0.35302540632176,  0.00330146677896 ]
      - [ -0.61136157245881, -0.00774221211293 ]
      - [ -0.00026725355506,  0.03732966186713 ]
    - # atom 3
      - [  0.35302540632176, -0.00330146677896 ]
      - [  0.61136157245881,  0.00774221211293 ]
      - [ -0.00026725355506,  0.03732966186713 ]
  - # 6
    frequency:    5.0435798742
    eigenvector:
    - # atom 1
      - [ -0.00928951759999,  0.00000000000000 ]
      - [ -0.01607154107512,  0.00062759348037 ]
      - [  0.00000000000000,  0.00000000000000 ]
    - # atom 2
      - [  0.01224492329735, -0.00032071936545 ]
      - [  0.02120627546021, -0.00064272567163 ]
      - [  0.02067860107716,  0.70625756173875 ]
    - # atom 3
      - [  0.01224492329735, -0.00032071936545 ]
      - [  0.02120627546021, -0.00064272567163 ]
      - [ -0.02067860107717, -0.70625756173875 ]
  - # 7
    frequency:    6.8742667000
    eigenvector:
    - # atom 1
      - [ -0.42651710383020,  0.00000000000000 ]
      - [ -0.73626050658946, -0.04944956341483 ]
      - [ -0.00000000000000, -0.00000000000000 ]
    - # atom 2
      - [  0.18482181414617, -0.00466835565189 ]
      - [  0.31850107098465,  0.02409591751948 ]
      - [  0.00120507016781, -0.02394346351617 ]
    - # atom 3
      - [  0.18482181414617, -0.00466835565189 ]
      - [  0.31850107098465,  0.02409591751948 ]
      - [ -0.00120507016781,  0.02394346351617 ]
  - # 8
    frequency:    6.8725398015
    eigenvector:
    - # atom 1
      - [ -0.73819058303381,  0.00000000000000 ]
      - [  0.42571634099563,  0.02854786516855 ]
      - [  0.00000000000000,  0.00000000000000 ]
    - # atom 2
      - [  0.31976031694861, -0.00269635996393 ]
      - [ -0.18430229256939, -0.01703449887644 ]
      - [ -0.00109525106786, -0.00001834599599 ]
    - # atom 3
      - [  0.31976031694861, -0.00269635996393 ]
      - [ -0.18430229256939, -0.01703449887644 ]
      - [  0.00109525106786,  0.00001834599599 ]
  - # 9
    frequency:    8.5190472078
    eigenvector:
    - # atom 1
      - [  0.00000000000000,  0.00000000000000 ]
      - [ -0.00000000000000,  0.00000000000000 ]
      - [  0.85250089176384, -0.01462849490165 ]
    - # atom 2
      - [  0.00016275060400,  0.00460931605036 ]
      - [  0.00008875158782,  0.00798688378700 ]
      - [ -0.36930866269308,  0.00633715453149 ]
    - # atom 3
      - [ -0.00016275060400, -0.00460931605036 ]
      - [ -0.00008875158782, -0.00798688378700 ]
      - [ -0.36930866269308,  0.00633715453149 ]

- q-position: [    0.0133333,    0.0133333,    0.0000000 ]
  distance:    0.0074906
  band:
  - # 1
    frequency:    0.0469979288
    eigenvector:
    - # atom 1
      - [ -0.00000000000001,  0.00000000000000 ]
      - [  0.00000000000001,  0.00000000000000 ]
      - [  0.49880304447417, -0.15333180850892 ]
    - # atom 2
      - [ -0.00830664568496, -0.02395924314772 ]
      - [ -0.01240077014325, -0.04210935616499 ]
      - [  0.57452723310179, -0.17660938654051 ]
    - # atom 3
      - [  0.00830664568494,  0.02395924314772 ]
      - [  0.01240077014327,  0.04210935616500 ]
      - [  0.57452723310179, -0.17660938654051 ]
  - # 2
    frequency:    0.1789093568
    eigenvector:
    - # atom 1
      - [  0.45233021001982,  0.00000000000000 ]
      - [ -0.26112356130178,  0.00554240578496 ]
      - [  0.00000000000001, -0.00000000000001 ]
    - # atom 2
      - [  0.52214891067704, -0.00585902605337 ]
      - [ -0.30150065851174, -0.00374985499755 ]
      - [ -0.00022952732502,  0.00000121783929 ]
    - # atom 3
      - [  0.52214891067704, -0.00585902605337 ]
      - [ -0.30150065851174, -0.00374985499755 ]
      - [  0.00022952732505, -0.00000121783930 ]
  - # 3
    frequency:    0.2914139467
    eigenvector:
    - # atom 1
      - [  0.26134614381310,  0.00000000000000 ]
      - [  0.45250896827782, -0.00969680856558 ]
      - [ -0.00000000000000,  0.00000000000000 ]
    - # atom 2
      - [  0.30113497956306, -0.01020916579510 ]
      - [  0.52178032264481, -0.00528492904565 ]
      - [ -0.00030093655062, -0.01872619029807 ]
    - # atom 3
      - [  0.30113497956306, -0.01020916579510 ]
      - [  0.52178032264481, -0.00528492904565 ]
      - [  0.00030093655062,  0.01872619029808 ]
  - # 4
    frequency:    3.4177500214
    eigenvector:
    - # atom 1
      - [ -0.00000000000000,  0.00000000000000 ]
      - [ -0.00000000000000,  0.00000000000000 ]
      - [ -0.00026750923851,  0.00005368523714 ]
    - # atom 2
      - [ -0.59946631310242,  0.12489777775199 ]
      - [  0.34814855863064, -0.06191211336479 ]
      - [ -0.00033777713309,  0.00006778698781 ]
    - # atom 3
      - [  0.59946631310242, -0.12489777775199 ]
      - [ -0.34814855863064,  0.06191211336479 ]
      - [ -0.00033777713309,  0.00006778698781 ]
  - # 5
    frequency:    3.4271530698
    eigenvector:
    - # atom 1
      - [ -0.00000000000000,  0.00000000000000 ]
      - [  0.00000000000000,  0.00000000000000 ]
      - [ -0.00076963817876,  0.02262205740263 ]
    - # atom 2
      - [ -0.35262135589630, -0.00423750011809 ]
      - [ -0.61014916992937, -0.02523803708023 ]
      - [ -0.00168818024374,  0.04962086267771 ]
    - # atom 3
      - [  0.35262135589630,  0.00423750011809 ]
      - [  0.61014916992937,  0.02523803708023 ]
      - [ -0.00168818024374,  0.04962086267771 ]
  - # 6
    frequency:    5.0413296059
    eigenvector:
    - # atom 1
      - [ -0.01234755730995,  0.00000000000000 ]
      - [ -0.02134295806354,  0.00111466093632 ]
      - [  0.00000000000000,  0.00000000000000 ]
    - # atom 2
      - [  0.01631737599419, -0.00057153858268 ]
      - [  0.02825645060999, -0.00114507352808 ]
      - [  0.02762381946100,  0.70559619453234 ]
    - # atom 3
      - [  0.01631737599419, -0.00057153858268 ]
      - [  0.02825645060999, -0.00114507352808 ]
      - [ -0.02762381946100, -0.70559619453234 ]
  - # 7
    frequency:    6.8761156865
    eigenvector:
    - # atom 1
      - [ -0.42674122030388,  0.00000000000000 ]
      - [ -0.73468030576320, -0.06612675940068 ]
      - [ -0.00000000000000, -0.00000000000000 ]
    - # atom 2
      - [  0.18482239117104, -0.00622510729736 ]
      - [  0.31722673658881,  0.03216866681341 ]
      - [  0.00214394278289, -0.03180762790857 ]
    - # atom 3
      - [  0.18482239117104, -0.00622510729736 ]
      - [  0.31722673658881,  0.03216866681341 ]
      - [ -0.00214394278289,  0.03180762790857 ]
  - # 8
    frequency:    6.8730581288
    eigenvector:
    - # atom 1
      - [ -0.73812942153763,  0.00000000000000 ]
      - [  0.42530387358629,  0.03817491064062 ]
      - [  0.00000000000000,  0.00000000000000 ]
    - # atom 2
      - [  0.31947158958917, -0.00359662347804 ]
      - [ -0.18389079179422, -0.02274794271241 ]
      - [ -0.00194879944025, -0.00004366477920 ]
    - # atom 3
      - [  0.31947158958917, -0.00359662347804 ]
      - [ -0.18389079179422, -0.02274794271241 ]
      - [  0.00194879944025,  0.00004366477920 ]
  - # 9
    frequency:    8.5166307231
    eigenvector:
    - # atom 1
      - [  0.00000000000000,  0.00000000000000 ]
      - [ -0.00000000000000,  0.00000000000000 ]
      - [  0.85269616419377, -0.00903917167446 ]
    - # atom 2
      - [  0.00021420799232,  0.00614946719612 ]
      - [  0.00002691230550,  0.01065483739449 ]
      - [ -0.36911661250688,  0.00391289250316 ]
    - # atom 3
      - [ -0.00021420799232, -0.00614946719612 ]
      - [ -0.00002691230550, -0.01065483739449 ]
      - [ -0.36911661250688,  0.00391289250316 ]

- q-position: [    0.0166666,    0.0166666,    0.0000000 ]
  distance:    0.0093633
  band:
  - # 1
    frequency:    0.0610795134
    eigenvector:
    - # atom 1
      - [  0.00000000000000,  0.00000000000000 ]
      - [ -0.00000000000000,  0.00000000000000 ]
      - [  0.00663376071636, -0.52128325005071 ]
    - # atom 2
      - [ -0.03157020987248,  0.00100168244387 ]
      - [ -0.05463996844442, -0.00150561497936 ]
      - [  0.00763619741591, -0.60005507843823 ]
    - # atom 3
      - [  0.03157020987249, -0.00100168244387 ]
      - [  0.05463996844441,  0.00150561497937 ]
      - [  0.00763619741591, -0.60005507843823 ]
  - # 2
    frequency:    0.2236256540
    eigenvector:
    - # atom 1
      - [  0.45210508801111,  0.00000000000000 ]
      - [ -0.26097714382681,  0.00691881295070 ]
      - [ -0.00000000000000,  0.00000000000001 ]
    - # atom 2
      - [  0.52221446365450, -0.00732353039198 ]
      - [ -0.30155977656941, -0.00469224870393 ]
      - [ -0.00035876929542,  0.00000237753639 ]
    - # atom 3
      - [  0.52221446365450, -0.00732353039198 ]
      - [ -0.30155977656941, -0.00469224870393 ]
      - [  0.00035876929542, -0.00000237753637 ]
  - # 3
    frequency:    0.3639238547
    eigenvector:
    - # atom 1
      - [ -0.26132604158220,  0.00000000000000 ]
      - [ -0.45238433652541,  0.01217324724640 ]
      - [ -0.00000000000000,  0.00000000000000 ]
    - # atom 2
      - [ -0.30098555033176,  0.01280378241920 ]
      - [ -0.52163577450728,  0.00664045864592 ]
      - [  0.00047325100080,  0.02345256485679 ]
    - # atom 3
      - [ -0.30098555033176,  0.01280378241920 ]
      - [ -0.52163577450728,  0.00664045864592 ]
      - [ -0.00047325100080, -0.02345256485678 ]
  - # 4
    frequency:    3.4191673820
    eigenvector:
    - # atom 1
      - [  0.00000000000000,  0.00000000000000 ]
      - [ -0.00000000000000, -0.00000000000000 ]
      - [ -0.00042165051640,  0.00006111745920 ]
    - # atom 2
      - [ -0.60515395763398,  0.09340743200875 ]
      - [  0.35125178471394, -0.04105534424716 ]
      - [ -0.00053376160995,  0.00007736775398 ]
    - # atom 3
      - [  0.60515395763398, -0.09340743200875 ]
      - [ -0.35125178471394,  0.04105534424716 ]
      - [ -0.00053376160995,  0.00007736775398 ]
  - # 5
    frequency:    3.4337807035
    eigenvector:
    - # atom 1
      - [ -0.00000000000000,  0.00000000000000 ]
      - [  0.00000000000000,  0.00000000000000 ]
      - [  0.00234067031129,  0.02800014644348 ]
    - # atom 2
      - [ -0.34998449584901,  0.03895717975863 ]
      - [ -0.60805060725511,  0.04522950666187 ]
      - [  0.00515357074767,  0.06164932111348 ]
    - # atom 3
      - [  0.34998449584901, -0.03895717975863 ]
      - [  0.60805060725511, -0.04522950666187 ]
      - [  0.00515357074767,  0.06164932111348 ]
  - # 6
    frequency:    5.0384483101
    eigenvector:
    - # atom 1
      - [ -0.01537321439374,  0.00000000000000 ]
      - [ -0.02654175476909,  0.00173949546553 ]
      - [ -0.00000000000000, -0.00000000000000 ]
    - # atom 2
      - [  0.02038224868217, -0.00089579030333 ]
      - [  0.03529117954385, -0.00179406639912 ]
      - [  0.03461285468483,  0.70474471449268 ]
    - # atom 3
      - [  0.02038224868217, -0.00089579030333 ]
      - [  0.03529117954385, -0.00179406639912 ]
      - [ -0.03461285468483, -0.70474471449268 ]
  - # 7
    frequency:    6.8784718888
    eigenvector:
    - # atom 1
      - [  0.42703769382552,  0.00000000000000 ]
      - [  0.73262104862233,  0.08296692101030 ]
      - [  0.00000000000000,  0.00000000000000 ]
    - # atom 2
      - [ -0.18482866336559,  0.00778238637680 ]
      - [ -0.31557797000849, -0.04027444324261 ]
      - [ -0.00335298049862,  0.03957170507131 ]
    - # atom 3
      - [ -0.18482866336559,  0.00778238637680 ]
      - [ -0.31557797000849, -0.04027444324261 ]
      - [  0.00335298049862, -0.03957170507131 ]
  - # 8
    frequency:    6.8737192723
    eigenvector:
    - # atom 1
      - [ -0.73804617858020,  0.00000000000000 ]
      - [  0.42476413752390,  0.04789687423790 ]
      - [  0.00000000000000,  0.00000000000000 ]
    - # atom 2
      - [  0.31909796228547, -0.00449812453267 ]
      - [ -0.18335698843547, -0.02849122411417 ]
      - [ -0.00304836498760, -0.00008573034977 ]
    - # atom 3