nqpoint: 303    
npath: 3      
segment_nqpoint:
- 101
- 101
- 101
reciprocal_lattice:
- [   0.28089888,   0.16217704,   0.00000000 ] # a*
- [   0.00000000,   0.32435408,   0.00000000 ] # b*
- [   0.00000000,   0.00000000,   0.03125000 ] # c*
natom: 3      
lattice:
- [     3.560000000000000,     0.000000000000000,     0.000000000000000 ] # a
- [    -1.780000000000000,     3.083050437472601,     0.000000000000000 ] # b
- [     0.000000000000000,     0.000000000000000,    32.000000000000000 ] # c
points:
- symbol: W # 1
  coordinates: [  0.000000000000000,  0.000000000000000,  0.500000000000000 ]
  mass: 183.840000
- symbol: Te # 2
  coordinates: [  0.666666666666672,  0.333333333333336,  0.556705793612528 ]
  mass: 127.600000
- symbol: Te # 3
  coordinates: [  0.666666666666672,  0.333333333333336,  0.443294206387472 ]
  mass: 127.600000

phonon:
- q-position: [    0.0000000,    0.0000000,    0.0000000 ]
  distance:    0.0000000
  band:
  - # 1
    frequency:    0.0007770381
    eigenvector:
    - # atom 1
      - [  0.00000000000284,  0.00000000000000 ]
      - [  0.00000000005666,  0.00000000000000 ]
      - [ -0.64710278859688,  0.00000000000000 ]
    - # atom 2
      - [  0.00000000000237,  0.00000000000000 ]
      - [  0.00000000004719,  0.00000000000000 ]
      - [ -0.53910016740405,  0.00000000000000 ]
    - # atom 3
      - [  0.00000000000237,  0.00000000000000 ]
      - [  0.00000000004719,  0.00000000000000 ]
      - [ -0.53910016740405,  0.00000000000000 ]
  - # 2
    frequency:    0.0032803574
    eigenvector:
    - # atom 1
      - [  0.64680340849235,  0.00000000000000 ]
      - [ -0.02127354716755,  0.00000000000000 ]
      - [  0.00000000000098,  0.00000000000000 ]
    - # atom 2
      - [  0.53877859506873,  0.00000000000000 ]
      - [ -0.01772058048021,  0.00000000000000 ]
      - [  0.00000000000081,  0.00000000000000 ]
    - # atom 3
      - [  0.53877859506873,  0.00000000000000 ]
      - [ -0.01772058048021,  0.00000000000000 ]
      - [  0.00000000000081,  0.00000000000000 ]
  - # 3
    frequency:    0.0032803575
    eigenvector:
    - # atom 1
      - [ -0.02127354716755,  0.00000000000000 ]
      - [ -0.64680340849235,  0.00000000000000 ]
      - [ -0.00000000005672,  0.00000000000000 ]
    - # atom 2
      - [ -0.01772058048021,  0.00000000000000 ]
      - [ -0.53877859506873,  0.00000000000000 ]
      - [ -0.00000000004725,  0.00000000000000 ]
    - # atom 3
      - [ -0.01772058048021,  0.00000000000000 ]
      - [ -0.53877859506873,  0.00000000000000 ]
      - [ -0.00000000004725,  0.00000000000000 ]
  - # 4
    frequency:    3.5433948128
    eigenvector:
    - # atom 1
      - [ -0.00000000000000,  0.00000000000000 ]
      - [ -0.00000000000000,  0.00000000000000 ]
      - [ -0.00000000000000,  0.00000000000000 ]
    - # atom 2
      - [  0.13609922224588,  0.00000000000000 ]
      - [  0.69388543845801,  0.00000000000000 ]
      - [  0.00000000000000,  0.00000000000000 ]
    - # atom 3
      - [ -0.13609922224589,  0.00000000000000 ]
      - [ -0.69388543845801,  0.00000000000000 ]
      - [  0.00000000000000,  0.00000000000000 ]
  - # 5
    frequency:    3.5433948128
    eigenvector:
    - # atom 1
      - [ -0.00000000000000,  0.00000000000000 ]
      - [ -0.00000000000000,  0.00000000000000 ]
      - [ -0.00000000000000,  0.00000000000000 ]
    - # atom 2
      - [ -0.69388543845801,  0.00000000000000 ]
      - [  0.13609922224589,  0.00000000000000 ]
      - [ -0.00000000000000,  0.00000000000000 ]
    - # atom 3
      - [  0.69388543845801,  0.00000000000000 ]
      - [ -0.13609922224589,  0.00000000000000 ]
      - [  0.00000000000000,  0.00000000000000 ]
  - # 6
    frequency:    5.2201350332
    eigenvector:
    - # atom 1
      - [ -0.00000000000000,  0.00000000000000 ]
      - [  0.00000000000000,  0.00000000000000 ]
      - [ -0.00000000000000,  0.00000000000000 ]
    - # atom 2
      - [  0.00000000000000,  0.00000000000000 ]
      - [ -0.00000000000000,  0.00000000000000 ]
      - [ -0.70710678118655,  0.00000000000000 ]
    - # atom 3
      - [ -0.00000000000000,  0.00000000000000 ]
      - [ -0.00000000000000,  0.00000000000000 ]
      - [  0.70710678118655,  0.00000000000000 ]
  - # 7
    frequency:    5.7455696553
    eigenvector:
    - # atom 1
      - [ -0.03964630803433,  0.00000000000000 ]
      - [  0.76132841613382,  0.00000000000000 ]
      - [ -0.00000000000000,  0.00000000000000 ]
    - # atom 2
      - [  0.02379768554787,  0.00000000000000 ]
      - [ -0.45698717343682,  0.00000000000000 ]
      - [  0.00000000000000,  0.00000000000000 ]
    - # atom 3
      - [  0.02379768554787,  0.00000000000000 ]
      - [ -0.45698717343682,  0.00000000000000 ]
      - [ -0.00000000000000,  0.00000000000000 ]
  - # 8
    frequency:    5.7455696553
    eigenvector:
    - # atom 1
      - [ -0.76132841613382,  0.00000000000000 ]
      - [ -0.03964630803433,  0.00000000000000 ]
      - [  0.00000000000000,  0.00000000000000 ]
    - # atom 2
      - [  0.45698717343682,  0.00000000000000 ]
      - [  0.02379768554787,  0.00000000000000 ]
      - [ -0.00000000000000,  0.00000000000000 ]
    - # atom 3
      - [  0.45698717343682,  0.00000000000000 ]
      - [  0.02379768554787,  0.00000000000000 ]
      - [ -0.00000000000000,  0.00000000000000 ]
  - # 9
    frequency:    7.1525572147
    eigenvector:
    - # atom 1
      - [ -0.00000000000000,  0.00000000000000 ]
      - [  0.00000000000000,  0.00000000000000 ]
      - [ -0.76240276822041,  0.00000000000000 ]
    - # atom 2
      - [  0.00000000000000,  0.00000000000000 ]
      - [ -0.00000000000000,  0.00000000000000 ]
      - [  0.45757076994158,  0.00000000000000 ]
    - # atom 3
      - [ -0.00000000000000,  0.00000000000000 ]
      - [  0.00000000000000,  0.00000000000000 ]
      - [  0.45757076994158,  0.00000000000000 ]

- q-position: [    0.0033333,    0.0033333,    0.0000000 ]
  distance:    0.0018727
  band:
  - # 1
    frequency:    0.0080290520
    eigenvector:
    - # atom 1
      - [ -0.00000000000001,  0.00000000000000 ]
      - [  0.00000000000001,  0.00000000000001 ]
      - [  0.58863574009693, -0.26865215041980 ]
    - # atom 2
      - [ -0.00243792260365, -0.00522106055675 ]
      - [ -0.00411740648414, -0.00909115491332 ]
      - [  0.49035589112039, -0.22379742792855 ]
    - # atom 3
      - [  0.00243792260363,  0.00522106055675 ]
      - [  0.00411740648415,  0.00909115491333 ]
      - [  0.49035589112039, -0.22379742792855 ]
  - # 2
    frequency:    0.0435380715
    eigenvector:
    - # atom 1
      - [ -0.56043453275005,  0.00000000000000 ]
      - [  0.32356075972606, -0.00284837456797 ]
      - [ -0.00000000000001,  0.00000000000001 ]
    - # atom 2
      - [ -0.46685420996938,  0.00138944313588 ]
      - [  0.26954024366101,  0.00003381231880 ]
      - [  0.00000022608352, -0.00000000049756 ]
    - # atom 3
      - [ -0.46685420996938,  0.00138944313588 ]
      - [  0.26954024366101,  0.00003381231880 ]
      - [ -0.00000022608354,  0.00000000049757 ]
  - # 3
    frequency:    0.0677233685
    eigenvector:
    - # atom 1
      - [ -0.32359772338205,  0.00000000000000 ]
      - [ -0.56045511084861,  0.00493476946604 ]
      - [  0.00000000000000, -0.00000000000001 ]
    - # atom 2
      - [ -0.26950595430102,  0.00240692858080 ]
      - [ -0.46680757068078,  0.00272048752472 ]
      - [  0.00002889969299,  0.00437635197624 ]
    - # atom 3
      - [ -0.26950595430102,  0.00240692858080 ]
      - [ -0.46680757068078,  0.00272048752472 ]
      - [ -0.00002889969299, -0.00437635197625 ]
  - # 4
    frequency:    3.5441796177
    eigenvector:
    - # atom 1
      - [  0.00000000000000,  0.00000000000000 ]
      - [  0.00000000000000, -0.00000000000000 ]
      - [  0.00062427632873,  0.00715818639678 ]
    - # atom 2
      - [ -0.35202423599427,  0.03232735957768 ]
      - [ -0.61004903496085,  0.05226407689551 ]
      - [  0.00093858676301,  0.01076218765630 ]
    - # atom 3
      - [  0.35202423599427, -0.03232735957768 ]
      - [  0.61004903496085, -0.05226407689551 ]
      - [  0.00093858676301,  0.01076218765630 ]
  - # 5
    frequency:    3.5435829851
    eigenvector:
    - # atom 1
      - [ -0.00000000000000,  0.00000000000000 ]
      - [ -0.00000000000000,  0.00000000000000 ]
      - [  0.00002388659726,  0.00000114297126 ]
    - # atom 2
      - [  0.61171518319174,  0.02833340379766 ]
      - [ -0.35307060778183, -0.01851750673067 ]
      - [  0.00002144750398,  0.00000102626090 ]
    - # atom 3
      - [ -0.61171518319174, -0.02833340379766 ]
      - [  0.35307060778183,  0.01851750673067 ]
      - [  0.00002144750398,  0.00000102626090 ]
  - # 6
    frequency:    5.2195350569
    eigenvector:
    - # atom 1
      - [ -0.01030067632847, -0.00000000000000 ]
      - [ -0.01783967058956,  0.00019655433272 ]
      - [  0.00000000000000, -0.00000000000000 ]
    - # atom 2
      - [  0.00905216058253, -0.00008533326936 ]
      - [  0.01567900304697, -0.00012347680877 ]
      - [  0.00583959465486,  0.70670071858718 ]
    - # atom 3
      - [  0.00905216058253, -0.00008533326936 ]
      - [  0.01567900304697, -0.00012347680877 ]
      - [ -0.00583959465486, -0.70670071858718 ]
  - # 7
    frequency:    5.7460706902
    eigenvector:
    - # atom 1
      - [ -0.38102775565276,  0.00000000000000 ]
      - [ -0.65995315339115,  0.00235046649298 ]
      - [ -0.00000000000000, -0.00000000000000 ]
    - # atom 2
      - [  0.22864001792757, -0.00204167878294 ]
      - [  0.39602495482717, -0.00023169387326 ]
      - [ -0.00006096068277, -0.02282173382967 ]
    - # atom 3
      - [  0.22864001792757, -0.00204167878294 ]
      - [  0.39602495482717, -0.00023169387326 ]
      - [  0.00006096068277,  0.02282173382967 ]
  - # 8
    frequency:    5.7455861635
    eigenvector:
    - # atom 1
      - [ -0.66023434734386,  0.00000000000000 ]
      - [  0.38118526443336, -0.00136038107266 ]
      - [  0.00000000000000,  0.00000000000000 ]
    - # atom 2
      - [  0.39628549933718, -0.00117951035424 ]
      - [ -0.22879724153587, -0.00122644250888 ]
      - [ -0.00007028207841,  0.00000006270589 ]
    - # atom 3
      - [  0.39628549933718, -0.00117951035424 ]
      - [ -0.22879724153587, -0.00122644250888 ]
      - [  0.00007028207841, -0.00000006270589 ]
  - # 9
    frequency:    7.1521990986
    eigenvector:
    - # atom 1
      - [  0.00000000000000,  0.00000000000000 ]
      - [ -0.00000000000000,  0.00000000000000 ]
      - [  0.76241647486448, -0.00186453352591 ]
    - # atom 2
      - [  0.00001182561587,  0.00155849206613 ]
      - [  0.00000197459872,  0.00269943270404 ]
      - [ -0.45754546566329,  0.00111895386378 ]
    - # atom 3
      - [ -0.00001182561587, -0.00155849206613 ]
      - [ -0.00000197459872, -0.00269943270404 ]
      - [ -0.45754546566329,  0.00111895386378 ]

- q-position: [    0.0066667,    0.0066667,    0.0000000 ]
  distance:    0.0037453
  band:
  - # 1
    frequency:    0.0164508384
    eigenvector:
    - # atom 1
      - [  0.00000000000001,  0.00000000000000 ]
      - [ -0.00000000000001,  0.00000000000001 ]
      - [ -0.58415468065502, -0.27785284804465 ]
    - # atom 2
      - [ -0.00476254944994,  0.01047872814454 ]
      - [ -0.00866641775167,  0.01795113437965 ]
      - [ -0.48651752323692, -0.23141178857529 ]
    - # atom 3
      - [  0.00476254944995, -0.01047872814454 ]
      - [  0.00866641775165, -0.01795113437965 ]
      - [ -0.48651752323692, -0.23141178857529 ]
  - # 2
    frequency:    0.0868846268
    eigenvector:
    - # atom 1
      - [  0.56038491720928,  0.00000000000000 ]
      - [ -0.32351329992743,  0.00569740819936 ]
      - [  0.00000000000001,  0.00000000000001 ]
    - # atom 2
      - [  0.46687204716849, -0.00277987585898 ]
      - [ -0.26955606775272, -0.00006809473519 ]
      - [ -0.00000090563823,  0.00000000398709 ]
    - # atom 3
      - [  0.46687204716849, -0.00277987585898 ]
      - [ -0.26955606775272, -0.00006809473519 ]
      - [  0.00000090563825, -0.00000000398708 ]
  - # 3
    frequency:    0.1352782619
    eigenvector:
    - # atom 1
      - [ -0.32366122906751,  0.00000000000000 ]
      - [ -0.56046712589539,  0.00987811960550 ]
      - [  0.00000000000000,  0.00000000000001 ]
    - # atom 2
      - [ -0.26941875685565,  0.00481762187452 ]
      - [ -0.46668532340888,  0.00544313106823 ]
      - [  0.00011576582894,  0.00875830931655 ]
    - # atom 3
      - [ -0.26941875685565,  0.00481762187452 ]
      - [ -0.46668532340888,  0.00544313106823 ]
      - [ -0.00011576582893, -0.00875830931654 ]
  - # 4
    frequency:    3.5465296606
    eigenvector:
    - # atom 1
      - [ -0.00000000000000,  0.00000000000000 ]
      - [  0.00000000000000,  0.00000000000000 ]
      - [  0.00011686293894, -0.01433920004942 ]
    - # atom 2
      - [  0.35336196874168, -0.00035853840740 ]
      - [  0.61197993623561,  0.00685726207371 ]
      - [  0.00017590972298, -0.02158429978922 ]
    - # atom 3
      - [ -0.35336196874168,  0.00035853840740 ]
      - [ -0.61197993623561, -0.00685726207371 ]
      - [  0.00017590972298, -0.02158429978922 ]
  - # 5
    frequency:    3.5441473096
    eigenvector:
    - # atom 1
      - [  0.00000000000000,  0.00000000000000 ]
      - [ -0.00000000000000,  0.00000000000000 ]
      - [  0.00009563753304,  0.00000033718899 ]
    - # atom 2
      - [  0.61236663567982,  0.00028651671827 ]
      - [ -0.35353479575947, -0.00448972638681 ]
      - [  0.00008593725214,  0.00000030298874 ]
    - # atom 3
      - [ -0.61236663567982, -0.00028651671827 ]
      - [  0.35353479575947,  0.00448972638681 ]
      - [  0.00008593725214,  0.00000030298874 ]
  - # 6
    frequency:    5.2177430912
    eigenvector:
    - # atom 1
      - [ -0.02048366009122,  0.00000000000000 ]
      - [ -0.03546576352676,  0.00078337963014 ]
      - [  0.00000000000000,  0.00000000000000 ]
    - # atom 2
      - [  0.01803092906876, -0.00034034347580 ]
      - [  0.03123207873094, -0.00049329529305 ]
      - [  0.01168634157212,  0.70549522032636 ]
    - # atom 3
      - [  0.01803092906876, -0.00034034347580 ]
      - [  0.03123207873094, -0.00049329529305 ]
      - [ -0.01168634157212, -0.70549522032636 ]
  - # 7
    frequency:    5.7475653851
    eigenvector:
    - # atom 1
      - [ -0.38057700091115,  0.00000000000000 ]
      - [ -0.65915390254376,  0.00466857011209 ]
      - [ -0.00000000000000, -0.00000000000000 ]
    - # atom 2
      - [  0.22815565430671, -0.00407753361753 ]
      - [  0.39521233762201, -0.00044490518975 ]
      - [ -0.00024127409084, -0.04542097490111 ]
    - # atom 3
      - [  0.22815565430671, -0.00407753361753 ]
      - [  0.39521233762201, -0.00044490518975 ]
      - [  0.00024127409084,  0.04542097490111 ]
  - # 8
    frequency:    5.7456356522
    eigenvector:
    - # atom 1
      - [  0.66026791487213,  0.00000000000000 ]
      - [ -0.38120099942458,  0.00272195507866 ]
      - [ -0.00000000000000, -0.00000000000000 ]
    - # atom 2
      - [ -0.39624570497131,  0.00236008882111 ]
      - [  0.22877937789506,  0.00245425310188 ]
      - [  0.00028099517013, -0.00000050160477 ]
    - # atom 3
      - [ -0.39624570497131,  0.00236008882111 ]
      - [  0.22877937789506,  0.00245425310188 ]
      - [ -0.00028099517013,  0.00000050160477 ]
  - # 9
    frequency:    7.1511252458
    eigenvector:
    - # atom 1
      - [  0.00000000000000,  0.00000000000000 ]
      - [ -0.00000000000000,  0.00000000000000 ]
      - [  0.76246272438251,  0.00246218761532 ]
    - # atom 2
      - [  0.00002203238121,  0.00311862234720 ]
      - [ -0.00003597721629,  0.00540137294300 ]
      - [ -0.45747260132217, -0.00147729631536 ]
    - # atom 3
      - [ -0.00002203238121, -0.00311862234720 ]
      - [  0.00003597721629, -0.00540137294300 ]
      - [ -0.45747260132217, -0.00147729631535 ]

- q-position: [    0.0100000,    0.0100000,    0.0000000 ]
  distance:    0.0056180
  band:
  - # 1
    frequency:    0.0257399431
    eigenvector:
    - # atom 1
      - [  0.00000000000000,  0.00000000000000 ]
      - [ -0.00000000000000, -0.00000000000000 ]
      - [  0.64418733166321, -0.05555208808844 ]
    - # atom 2
      - [ -0.00192808907385, -0.01712198321549 ]
      - [ -0.00230441512874, -0.02974541051296 ]
      - [  0.53632290068644, -0.04625029949884 ]
    - # atom 3
      - [  0.00192808907386,  0.01712198321549 ]
      - [  0.00230441512873,  0.02974541051295 ]
      - [  0.53632290068644, -0.04625029949884 ]
  - # 2
    frequency:    0.1302604174
    eigenvector:
    - # atom 1
      - [ -0.56030228267959,  0.00000000000000 ]
      - [  0.32343420578310, -0.00854776178951 ]
      - [  0.00000000000001, -0.00000000000000 ]
    - # atom 2
      - [ -0.46690170387952,  0.00417229056779 ]
      - [  0.26958242039738,  0.00010332122064 ]
      - [  0.00000204259535, -0.00000001349373 ]
    - # atom 3
      - [ -0.46690170387952,  0.00417229056779 ]
      - [  0.26958242039738,  0.00010332122064 ]
      - [ -0.00000204259534,  0.00000001349373 ]
  - # 3
    frequency:    0.2027610657
    eigenvector:
    - # atom 1
      - [ -0.32376732576719,  0.00000000000000 ]
      - [ -0.56048686237585,  0.01483863007888 ]
      - [ -0.00000000000000,  0.00000000000000 ]
    - # atom 2
      - [ -0.26927289492024,  0.00723582865454 ]
      - [ -0.46648095024272,  0.00817006369587 ]
      - [  0.00026110006803,  0.01315147349448 ]
    - # atom 3
      - [ -0.26927289492024,  0.00723582865454 ]
      - [ -0.46648095024272,  0.00817006369587 ]
      - [ -0.00026110006803, -0.01315147349448 ]
  - # 4
    frequency:    3.5504318979
    eigenvector:
    - # atom 1
      - [ -0.00000000000000,  0.00000000000000 ]
      - [  0.00000000000000, -0.00000000000000 ]
      - [  0.00104056015298,  0.02140705861715 ]
    - # atom 2
      - [ -0.35243949228992,  0.02198721262291 ]
      - [ -0.61098690802853,  0.02689555717065 ]
      - [  0.00156942138534,  0.03228712486729 ]
    - # atom 3
      - [  0.35243949228992, -0.02198721262291 ]
      - [  0.61098690802853, -0.02689555717065 ]
      - [  0.00156942138534,  0.03228712486729 ]
  - # 5
    frequency:    3.5450872097
    eigenvector:
    - # atom 1
      - [  0.00000000000000,  0.00000000000000 ]
      - [ -0.00000000000000,  0.00000000000000 ]
      - [  0.00021511606566,  0.00000127599536 ]
    - # atom 2
      - [  0.61235895374956,  0.00082246313364 ]
      - [ -0.35350711729151, -0.00696367309861 ]
      - [  0.00019354265923,  0.00000114802925 ]
    - # atom 3
      - [ -0.61235895374956, -0.00082246313364 ]
      - [  0.35350711729151,  0.00696367309861 ]
      - [  0.00019354265923,  0.00000114802925 ]
  - # 6
    frequency:    5.2147825299
    eigenvector:
    - # atom 1
      - [ -0.03043765874453, -0.00000000000000 ]
      - [ -0.05267586876381,  0.00175216143903 ]
      - [  0.00000000000000, -0.00000000000000 ]
    - # atom 2
      - [  0.02686712813898, -0.00076216443676 ]
      - [  0.04654052937959, -0.00110768025790 ]
      - [  0.01754746534091,  0.70352702934270 ]
    - # atom 3
      - [  0.02686712813898, -0.00076216443676 ]
      - [  0.04654052937959, -0.00110768025790 ]
      - [ -0.01754746534091, -0.70352702934270 ]
  - # 7
    frequency:    5.7500290135
    eigenvector:
    - # atom 1
      - [ -0.37984510254013,  0.00000000000000 ]
      - [ -0.65785637267786,  0.00692325574455 ]
      - [ -0.00000000000000,  0.00000000000000 ]
    - # atom 2
      - [  0.22736508962066, -0.00610215222158 ]
      - [  0.39388639972275, -0.00062187380141 ]
      - [ -0.00053345645007, -0.06758766409148 ]
    - # atom 3
      - [  0.22736508962066, -0.00610215222158 ]
      - [  0.39388639972275, -0.00062187380141 ]
      - [  0.00053345645007,  0.06758766409148 ]
  - # 8
    frequency:    5.7457180139
    eigenvector:
    - # atom 1
      - [ -0.66032364624935,  0.00000000000000 ]
      - [  0.38122708712007, -0.00408592003587 ]
      - [  0.00000000000000, -0.00000000000000 ]
    - # atom 2
      - [  0.39617931114202, -0.00354280465080 ]
      - [ -0.22874958550761, -0.00368479895003 ]
      - [ -0.00063174033808,  0.00000169268200 ]
    - # atom 3
      - [  0.39617931114202, -0.00354280465080 ]
      - [ -0.22874958550761, -0.00368479895003 ]
      - [  0.00063174033808, -0.00000169268200 ]
  - # 9
    frequency:    7.1493371415
    eigenvector:
    - # atom 1
      - [  0.00000000000000,  0.00000000000000 ]
      - [ -0.00000000000000, -0.00000000000000 ]
      - [  0.76214933224177,  0.02460998570597 ]
    - # atom 2
      - [ -0.00007872250850,  0.00468145689836 ]
      - [ -0.00030347675658,  0.00810312468284 ]
      - [ -0.45711686383861, -0.01476041375243 ]
    - # atom 3
      - [  0.00007872250850, -0.00468145689836 ]
      - [  0.00030347675658, -0.00810312468284 ]
      - [ -0.45711686383861, -0.01476041375243 ]

- q-position: [    0.0133333,    0.0133333,    0.0000000 ]
  distance:    0.0074906
  band:
  - # 1
    frequency:    0.0362170076
    eigenvector:
    - # atom 1
      - [  0.00000000000000,  0.00000000000000 ]
      - [ -0.00000000000000,  0.00000000000000 ]
      - [ -0.15842548998609,  0.62645441066820 ]
    - # atom 2
      - [  0.02239174320190,  0.00483892591283 ]
      - [  0.03833144831037,  0.01016933343863 ]
      - [ -0.13183207394606,  0.52129732531236 ]
    - # atom 3
      - [ -0.02239174320189, -0.00483892591283 ]
      - [ -0.03833144831037, -0.01016933343863 ]
      - [ -0.13183207394606,  0.52129732531236 ]
  - # 2
    frequency:    0.1736285563
    eigenvector:
    - # atom 1
      - [ -0.56018671628304,  0.00000000000000 ]
      - [  0.32332348549901, -0.01140009983226 ]
      - [ -0.00000000000000,  0.00000000000000 ]
    - # atom 2
      - [ -0.46694307198821,  0.00556768525397 ]
      - [  0.26961927040101,  0.00013997350169 ]
      - [  0.00000364357108, -0.00000003210978 ]
    - # atom 3
      - [ -0.46694307198821,  0.00556768525397 ]
      - [  0.26961927040101,  0.00013997350169 ]
      - [ -0.00000364357109,  0.00000003210979 ]
  - # 3
    frequency:    0.2701025798
    eigenvector:
    - # atom 1
      - [  0.32391639417725,  0.00000000000000 ]
      - [  0.56051388416229, -0.01982487823956 ]
      - [ -0.00000000000000,  0.00000000000000 ]
    - # atom 2
      - [  0.26906756755242, -0.00966526557540 ]
      - [  0.46619350801201, -0.01090337230022 ]
      - [ -0.00046574012922, -0.01756143793944 ]
    - # atom 3
      - [  0.26906756755242, -0.00966526557540 ]
      - [  0.46619350801201, -0.01090337230022 ]
      - [  0.00046574012921,  0.01756143793944 ]
  - # 4
    frequency:    3.5558648271
    eigenvector:
    - # atom 1
      - [  0.00000000000000,  0.00000000000000 ]
      - [  0.00000000000000,  0.00000000000000 ]
      - [  0.00020183305539,  0.02843279895938 ]
    - # atom 2
      - [ -0.35268137198218,  0.00895661390149 ]
      - [ -0.61096783831717,  0.00061133432113 ]
      - [  0.00030525877990,  0.04300267616126 ]
    - # atom 3
      - [  0.35268137198218, -0.00895661390149 ]
      - [  0.61096783831717, -0.00061133432113 ]
      - [  0.00030525877990,  0.04300267616126 ]
  - # 5
    frequency:    3.5464017276
    eigenvector:
    - # atom 1
      - [ -0.00000000000000,  0.00000000000000 ]
      - [  0.00000000000000, -0.00000000000000 ]
      - [  0.00036724273446,  0.00010613203022 ]
    - # atom 2
      - [  0.58930543243523,  0.16640571811216 ]
      - [ -0.33783230601486, -0.10439054323915 ]
      - [  0.00033099964758,  0.00009565788865 ]
    - # atom 3
      - [ -0.58930543243523, -0.16640571811216 ]
      - [  0.33783230601486,  0.10439054323915 ]
      - [  0.00033099964758,  0.00009565788865 ]
  - # 6
    frequency:    5.2106907808
    eigenvector:
    - # atom 1
      - [ -0.04006334275069,  0.00000000000000 ]
      - [ -0.06928845415807,  0.00308966912452 ]
      - [  0.00000000000000, -0.00000000000000 ]
    - # atom 2
      - [  0.03549945237924, -0.00134634281887 ]
      - [  0.06149916016708, -0.00196386344873 ]
      - [  0.02343028732668,  0.70085322338778 ]
    - # atom 3
      - [  0.03549945237924, -0.00134634281887 ]
      - [  0.06149916016708, -0.00196386344873 ]
      - [ -0.02343028732668, -0.70085322338778 ]
  - # 7
    frequency:    5.7534219721
    eigenvector:
    - # atom 1
      - [ -0.37885903518122,  0.00000000000000 ]
      - [ -0.65610873336128,  0.00908592940207 ]
      - [ -0.00000000000000,  0.00000000000000 ]
    - # atom 2
      - [  0.22629170389904, -0.00811088920312 ]
      - [  0.39208688295106, -0.00074620265685 ]
      - [ -0.00092573641886, -0.08913497804991 ]
    - # atom 3
      - [  0.22629170389904, -0.00811088920312 ]
      - [  0.39208688295106, -0.00074620265685 ]
      - [  0.00092573641886,  0.08913497804991 ]
  - # 8
    frequency:    5.7458330703
    eigenvector:
    - # atom 1
      - [  0.66040122085928,  0.00000000000000 ]
      - [ -0.38126332210662,  0.00545348401909 ]
      - [ -0.00000000000000,  0.00000000000000 ]
    - # atom 2
      - [ -0.39608621374538,  0.00472872935915 ]
      - [  0.22870783543777,  0.00491944545291 ]
      - [  0.00112185432951, -0.00000401151885 ]
    - # atom 3
      - [ -0.39608621374538,  0.00472872935915 ]
      - [  0.22870783543777,  0.00491944545291 ]
      - [ -0.00112185432951,  0.00000401151885 ]
  - # 9
    frequency:    7.1468372589
    eigenvector:
    - # atom 1
      - [  0.00000000000000,  0.00000000000000 ]
      - [ -0.00000000000000,  0.00000000000000 ]
      - [  0.76244564286100, -0.01800739389284 ]
    - # atom 2
      - [  0.00027666501653,  0.00624430099739 ]
      - [  0.00018101843345,  0.01082248896856 ]
      - [ -0.45705955088386,  0.01079480411793 ]
    - # atom 3
      - [ -0.00027666501653, -0.00624430099739 ]
      - [ -0.00018101843345, -0.01082248896856 ]
      - [ -0.45705955088386,  0.01079480411793 ]

- q-position: [    0.0166666,    0.0166666,    0.0000000 ]
  distance:    0.0093633
  band:
  - # 1
    frequency:    0.0481258841
    eigenvector:
    - # atom 1
      - [  0.00000000000000,  0.00000000000000 ]
      - [ -0.00000000000001,  0.00000000000000 ]
      - [ -0.56974928005980,  0.30376280558594 ]
    - # atom 2
      - [  0.01450991405224,  0.02456787691651 ]
      - [  0.02259366658060,  0.04390607900608 ]
      - [ -0.47380636260221,  0.25261067463466 ]
    - # atom 3
      - [ -0.01450991405223, -0.02456787691651 ]
      - [ -0.02259366658061, -0.04390607900608 ]
      - [ -0.47380636260221,  0.25261067463466 ]
  - # 2
    frequency:    0.2169767483
    eigenvector:
    - # atom 1
      - [ -0.56003834011825,  0.00000000000000 ]
      - [  0.32318115042266, -0.01425509205566 ]
      - [ -0.00000000000001,  0.00000000000000 ]
    - # atom 2
      - [ -0.46699599976777,  0.00696706622525 ]
      - [  0.26966657423176,  0.00017854495597 ]
      - [  0.00000571796810, -0.00000006303001 ]
    - # atom 3
      - [ -0.46699599976777,  0.00696706622525 ]
      - [  0.26966657423176,  0.00017854495597 ]
      - [ -0.00000571796811,  0.00000006303001 ]
  - # 3
    frequency:    0.3372493947
    eigenvector:
    - # atom 1
      - [ -0.32410896697242,  0.00000000000000 ]
      - [ -0.56054757421540,  0.02484543727217 ]
      - [  0.00000000000000, -0.00000000000000 ]
    - # atom 2
      - [ -0.26880165016825,  0.01210960051339 ]
      - [ -0.46582167311559,  0.01364507384992 ]
      - [  0.00073086217487,  0.02199378335279 ]
    - # atom 3
      - [ -0.26880165016825,  0.01210960051339 ]
      - [ -0.46582167311559,  0.01364507384992 ]
      - [ -0.00073086217486, -0.02199378335279 ]
  - # 4
    frequency:    3.5627988322
    eigenvector:
    - # atom 1
      - [  0.00000000000000,  0.00000000000000 ]
      - [  0.00000000000000, -0.00000000000000 ]
      - [  0.00139770195239, -0.03528691693894 ]
    - # atom 2
      - [  0.35232668902407,  0.00590503377830 ]
      - [  0.60951246421665,  0.02879052449468 ]
      - [  0.00212147812767, -0.05355964649751 ]
    - # atom 3
      - [ -0.35232668902407, -0.00590503377830 ]
      - [ -0.60951246421664, -0.02879052449468 ]
      - [  0.00212147812767, -0.05355964649751 ]
  - # 5
    frequency:    3.5480895297
    eigenvector:
    - # atom 1
      - [  0.00000000000000,  0.00000000000000 ]
      - [ -0.00000000000000,  0.00000000000000 ]
      - [  0.00059690741634, -0.00000856502147 ]
    - # atom 2
      - [  0.61218800173207, -0.01347339292317 ]
      - [ -0.35360226139975, -0.00304794043918 ]
      - [  0.00053922604192, -0.00000773735172 ]
    - # atom 3
      - [ -0.61218800173207,  0.01347339292317 ]
      - [  0.35360226139975,  0.00304794043918 ]
      - [  0.00053922604192, -0.00000773735172 ]
  - # 6
    frequency:    5.2055171282
    eigenvector:
    - # atom 1
      - [ -0.04927742945149,  0.00000000000000 ]
      - [ -0.08515000104995,  0.00477858267953 ]
      - [  0.00000000000000, -0.00000000000000 ]
    - # atom 2
      - [  0.04387714077313, -0.00208726450117 ]
      - [  0.07602086372183, -0.00305833177040 ]
      - [  0.02934216853582,  0.69754579819792 ]
    - # atom 3
      - [  0.04387714077313, -0.00208726450117 ]
      - [  0.07602086372183, -0.00305833177040 ]
      - [ -0.02934216853582, -0.69754579819792 ]
  - # 7
    frequency:    5.7576919557
    eigenvector:
    - # atom 1
      - [ -0.37765283833704,  0.00000000000000 ]
      - [ -0.65397181040540,  0.01113133749491 ]
      - [ -0.00000000000000,  0.00000000000000 ]
    - # atom 2
      - [  0.22496518490736, -0.01010012191750 ]
      - [  0.38986418787738, -0.00080335288829 ]
      - [ -0.00140298276251, -0.10990724953061 ]
    - # atom 3
      - [  0.22496518490736, -0.01010012191750 ]
      - [  0.38986418787738, -0.00080335288829 ]
      - [  0.00140298276251,  0.10990724953061 ]
  - # 8
    frequency:    5.7459805745
    eigenvector:
    - # atom 1
      - [ -0.66050019210316,  0.00000000000000 ]
      - [  0.38130941784774, -0.00682586990797 ]
      - [  0.00000000000000, -0.00000000000000 ]
    - # atom 2
      - [  0.39596626847189, -0.00591893783677 ]
      - [ -0.22865408825564, -0.00615955548943 ]
      - [ -0.00175041203207,  0.00000783311825 ]
    - # atom 3