nqpoint: 303    
npath: 3      
segment_nqpoint:
- 101
- 101
- 101
reciprocal_lattice:
- [   0.29940120,   0.17285936,   0.00000000 ] # a*
- [   0.00000000,   0.34571872,   0.00000000 ] # b*
- [   0.00000000,   0.00000000,   0.03125000 ] # c*
natom: 3      
lattice:
- [     3.340000000000001,     0.000000000000000,     0.000000000000000 ] # a
- [    -1.670000000000001,     2.892524848640025,     0.000000000000000 ] # b
- [     0.000000000000000,     0.000000000000000,    32.000000000000000 ] # c
points:
- symbol: Ta # 1
  coordinates: [  0.000000000000000,  0.000000000000000,  0.500000000000000 ]
  mass: 180.947880
- symbol: S # 2
  coordinates: [  0.666666666666672,  0.333333333333336,  0.548838538245475 ]
  mass: 32.065000
- symbol: S # 3
  coordinates: [  0.666666666666672,  0.333333333333336,  0.451161461754525 ]
  mass: 32.065000

phonon:
- q-position: [    0.0000000,    0.0000000,    0.0000000 ]
  distance:    0.0000000
  band:
  - # 1
    frequency:   -0.0000466743
    eigenvector:
    - # atom 1
      - [  0.00000000002269,  0.00000000000000 ]
      - [ -0.00000000006699,  0.00000000000000 ]
      - [ -0.85925797558333,  0.00000000000000 ]
    - # atom 2
      - [  0.00000000000955,  0.00000000000000 ]
      - [ -0.00000000002820,  0.00000000000000 ]
      - [ -0.36171517205975,  0.00000000000000 ]
    - # atom 3
      - [  0.00000000000955,  0.00000000000000 ]
      - [ -0.00000000002820,  0.00000000000000 ]
      - [ -0.36171517205975,  0.00000000000000 ]
  - # 2
    frequency:    0.0039393076
    eigenvector:
    - # atom 1
      - [ -0.02397450433507,  0.00000000000000 ]
      - [  0.85891896827204,  0.00000000000000 ]
      - [ -0.00000000006760,  0.00000000000000 ]
    - # atom 2
      - [ -0.01009256237857,  0.00000000000000 ]
      - [  0.36157966580939,  0.00000000000000 ]
      - [ -0.00000000002846,  0.00000000000000 ]
    - # atom 3
      - [ -0.01009256237857,  0.00000000000000 ]
      - [  0.36157966580938,  0.00000000000000 ]
      - [ -0.00000000002846,  0.00000000000000 ]
  - # 3
    frequency:    0.0039393076
    eigenvector:
    - # atom 1
      - [ -0.85891896827204,  0.00000000000000 ]
      - [ -0.02397450433507,  0.00000000000000 ]
      - [ -0.00000000002082,  0.00000000000000 ]
    - # atom 2
      - [ -0.36157966580938,  0.00000000000000 ]
      - [ -0.01009256237857,  0.00000000000000 ]
      - [ -0.00000000000876,  0.00000000000000 ]
    - # atom 3
      - [ -0.36157966580938,  0.00000000000000 ]
      - [ -0.01009256237857,  0.00000000000000 ]
      - [ -0.00000000000876,  0.00000000000000 ]
  - # 4
    frequency:    6.5864488292
    eigenvector:
    - # atom 1
      - [ -0.00000000000000,  0.00000000000000 ]
      - [ -0.00000000000000,  0.00000000000000 ]
      - [  0.00000000000000,  0.00000000000000 ]
    - # atom 2
      - [  0.00000000000000,  0.00000000000000 ]
      - [  0.70710678118655,  0.00000000000000 ]
      - [  0.00000000000000,  0.00000000000000 ]
    - # atom 3
      - [ -0.00000000000000,  0.00000000000000 ]
      - [ -0.70710678118655,  0.00000000000000 ]
      - [  0.00000000000000,  0.00000000000000 ]
  - # 5
    frequency:    6.5864488292
    eigenvector:
    - # atom 1
      - [  0.00000000000000,  0.00000000000000 ]
      - [ -0.00000000000000,  0.00000000000000 ]
      - [  0.00000000000000,  0.00000000000000 ]
    - # atom 2
      - [  0.70710678118655,  0.00000000000000 ]
      - [ -0.00000000000000,  0.00000000000000 ]
      - [  0.00000000000000,  0.00000000000000 ]
    - # atom 3
      - [ -0.70710678118655,  0.00000000000000 ]
      - [  0.00000000000000,  0.00000000000000 ]
      - [  0.00000000000000,  0.00000000000000 ]
  - # 6
    frequency:    8.4596354292
    eigenvector:
    - # atom 1
      - [  0.49041699681957,  0.00000000000000 ]
      - [  0.14551494189552,  0.00000000000000 ]
      - [  0.00000000000000,  0.00000000000000 ]
    - # atom 2
      - [ -0.58248361393392,  0.00000000000000 ]
      - [ -0.17283265014542,  0.00000000000000 ]
      - [ -0.00000000000000,  0.00000000000000 ]
    - # atom 3
      - [ -0.58248361393392,  0.00000000000000 ]
      - [ -0.17283265014542,  0.00000000000000 ]
      - [ -0.00000000000000,  0.00000000000000 ]
  - # 7
    frequency:    8.4596354292
    eigenvector:
    - # atom 1
      - [ -0.14551494189552,  0.00000000000000 ]
      - [  0.49041699681957,  0.00000000000000 ]
      - [  0.00000000000000,  0.00000000000000 ]
    - # atom 2
      - [  0.17283265014542,  0.00000000000000 ]
      - [ -0.58248361393392,  0.00000000000000 ]
      - [ -0.00000000000000,  0.00000000000000 ]
    - # atom 3
      - [  0.17283265014542,  0.00000000000000 ]
      - [ -0.58248361393392,  0.00000000000000 ]
      - [ -0.00000000000000,  0.00000000000000 ]
  - # 8
    frequency:   10.7721282925
    eigenvector:
    - # atom 1
      - [ -0.00000000000000, -0.00000000000000 ]
      - [  0.00000000000000,  0.00000000000000 ]
      - [ -0.51154250204302,  0.00000000000000 ]
    - # atom 2
      - [  0.00000000000000,  0.00000000000000 ]
      - [ -0.00000000000000,  0.00000000000000 ]
      - [  0.60758714132360,  0.00000000000000 ]
    - # atom 3
      - [ -0.00000000000000,  0.00000000000000 ]
      - [ -0.00000000000000,  0.00000000000000 ]
      - [  0.60758714132360,  0.00000000000000 ]
  - # 9
    frequency:   11.5099071068
    eigenvector:
    - # atom 1
      - [ -0.00000000000000,  0.00000000000000 ]
      - [  0.00000000000000,  0.00000000000000 ]
      - [ -0.00000000000000,  0.00000000000000 ]
    - # atom 2
      - [  0.00000000000000,  0.00000000000000 ]
      - [  0.00000000000000,  0.00000000000000 ]
      - [  0.70710678118655,  0.00000000000000 ]
    - # atom 3
      - [ -0.00000000000000,  0.00000000000000 ]
      - [ -0.00000000000000,  0.00000000000000 ]
      - [ -0.70710678118654,  0.00000000000000 ]

- q-position: [    0.0033333,    0.0033333,    0.0000000 ]
  distance:    0.0019960
  band:
  - # 1
    frequency:   -0.0173652328
    eigenvector:
    - # atom 1
      - [  0.00000000000003,  0.00000000000000 ]
      - [ -0.00000000000006, -0.00000000000002 ]
      - [ -0.84830927963842, -0.13659820132683 ]
    - # atom 2
      - [ -0.00052379173550,  0.00343942484367 ]
      - [ -0.00097485138586,  0.00594637053595 ]
      - [ -0.35707390533696, -0.05749748868781 ]
    - # atom 3
      - [  0.00052379173552, -0.00343942484367 ]
      - [  0.00097485138581, -0.00594637053596 ]
      - [ -0.35707390533696, -0.05749748868781 ]
  - # 2
    frequency:    0.1100621356
    eigenvector:
    - # atom 1
      - [  0.42971077493455,  0.00000000000000 ]
      - [  0.74412291257768, -0.01252008468005 ]
      - [ -0.00000000000004,  0.00000000000001 ]
    - # atom 2
      - [  0.18076880308241, -0.00212760040820 ]
      - [  0.31309628205304, -0.00403930465432 ]
      - [ -0.00003787187992, -0.00300134597796 ]
    - # atom 3
      - [  0.18076880308241, -0.00212760040820 ]
      - [  0.31309628205304, -0.00403930465432 ]
      - [  0.00003787187989,  0.00300134597797 ]
  - # 3
    frequency:    0.0747017539
    eigenvector:
    - # atom 1
      - [  0.74415550744722,  0.00000000000000 ]
      - [ -0.42960797508978,  0.00722882518846 ]
      - [  0.00000000000005,  0.00000000000000 ]
    - # atom 2
      - [  0.31321712204044, -0.00122924809629 ]
      - [ -0.18083513222186,  0.00091356269120 ]
      - [  0.00000693863733, -0.00000002918680 ]
    - # atom 3
      - [  0.31321712204044, -0.00122924809629 ]
      - [ -0.18083513222186,  0.00091356269121 ]
      - [ -0.00000693863728,  0.00000002918680 ]
  - # 4
    frequency:    6.5876006704
    eigenvector:
    - # atom 1
      - [ -0.00000000000000, -0.00000000000000 ]
      - [ -0.00000000000000, -0.00000000000000 ]
      - [  0.00001905167922,  0.00830342418368 ]
    - # atom 2
      - [ -0.35353796643851, -0.00105145411872 ]
      - [ -0.61233585069257,  0.00248035247247 ]
      - [  0.00000857912385,  0.00373909846207 ]
    - # atom 3
      - [  0.35353796643851,  0.00105145411872 ]
      - [  0.61233585069257, -0.00248035247247 ]
      - [  0.00000857912385,  0.00373909846207 ]
  - # 5
    frequency:    6.5872314502
    eigenvector:
    - # atom 1
      - [ -0.00000000000000,  0.00000000000000 ]
      - [  0.00000000000000,  0.00000000000000 ]
      - [ -0.00004314626703,  0.00000004405884 ]
    - # atom 2
      - [ -0.61237038022171, -0.00044983581841 ]
      - [  0.35354966837934, -0.00222325803892 ]
      - [ -0.00005706662584,  0.00000005827367 ]
    - # atom 3
      - [  0.61237038022171,  0.00044983581841 ]
      - [ -0.35354966837934,  0.00222325803892 ]
      - [ -0.00005706662584,  0.00000005827367 ]
  - # 6
    frequency:    8.4579041366
    eigenvector:
    - # atom 1
      - [ -0.25569102955489,  0.00000000000000 ]
      - [ -0.44260386631171, -0.01252969661164 ]
      - [  0.00000000000000,  0.00000000000000 ]
    - # atom 2
      - [  0.30392704093807, -0.00357203475662 ]
      - [  0.52592586888235,  0.01695201825598 ]
      - [ -0.00007845550213,  0.00369574531144 ]
    - # atom 3
      - [  0.30392704093807, -0.00357203475662 ]
      - [  0.52592586888235,  0.01695201825598 ]
      - [  0.00007845550213, -0.00369574531144 ]
  - # 7
    frequency:    8.4577997313
    eigenvector:
    - # atom 1
      - [ -0.44293716196669,  0.00000000000000 ]
      - [  0.25567878314897,  0.00723016372347 ]
      - [ -0.00000000000000, -0.00000000000000 ]
    - # atom 2
      - [  0.52613902835756, -0.00206753692446 ]
      - [ -0.30367205431566, -0.01216912709830 ]
      - [  0.00014651541496,  0.00000103564684 ]
    - # atom 3
      - [  0.52613902835756, -0.00206753692446 ]
      - [ -0.30367205431566, -0.01216912709830 ]
      - [ -0.00014651541496, -0.00000103564684 ]
  - # 8
    frequency:   10.7714647213
    eigenvector:
    - # atom 1
      - [ -0.00000000000000,  0.00000000000000 ]
      - [  0.00000000000000,  0.00000000000000 ]
      - [ -0.51019763218350, -0.03662955787641 ]
    - # atom 2
      - [ -0.00002081646540, -0.00010663605133 ]
      - [  0.00002936178630, -0.00018000245844 ]
      - [  0.60604051839113,  0.04351058265177 ]
    - # atom 3
      - [  0.00002081646540,  0.00010663605133 ]
      - [ -0.00002936178630,  0.00018000245844 ]
      - [  0.60604051839113,  0.04351058265177 ]
  - # 9
    frequency:   11.5095413444
    eigenvector:
    - # atom 1
      - [  0.00316205553011,  0.00000000000000 ]
      - [  0.00547226850425, -0.00018266999547 ]
      - [ -0.00000000000000, -0.00000000000000 ]
    - # atom 2
      - [ -0.00082314242472, -0.00003846266114 ]
      - [ -0.00142231227387,  0.00006970324038 ]
      - [  0.01769332737321,  0.70686933053419 ]
    - # atom 3
      - [ -0.00082314242472, -0.00003846266114 ]
      - [ -0.00142231227387,  0.00006970324038 ]
      - [ -0.01769332737321, -0.70686933053419 ]

- q-position: [    0.0066667,    0.0066667,    0.0000000 ]
  distance:    0.0039920
  band:
  - # 1
    frequency:   -0.0344370486
    eigenvector:
    - # atom 1
      - [ -0.00000000000002,  0.00000000000000 ]
      - [  0.00000000000001, -0.00000000000000 ]
      - [  0.84935906920591,  0.12949070172225 ]
    - # atom 2
      - [  0.00093018329446, -0.00688818232614 ]
      - [  0.00188188572375, -0.01188940236210 ]
      - [  0.35741878261294,  0.05449098107887 ]
    - # atom 3
      - [ -0.00093018329448,  0.00688818232614 ]
      - [ -0.00188188572375,  0.01188940236210 ]
      - [  0.35741878261294,  0.05449098107887 ]
  - # 2
    frequency:    0.2197514939
    eigenvector:
    - # atom 1
      - [  0.42996337430901,  0.00000000000000 ]
      - [  0.74408292435379, -0.02511187643753 ]
      - [ -0.00000000000000, -0.00000000000000 ]
    - # atom 2
      - [  0.18049408609809, -0.00425590980440 ]
      - [  0.31260672262975, -0.00809084022078 ]
      - [ -0.00015198526066, -0.00600585854758 ]
    - # atom 3
      - [  0.18049408609809, -0.00425590980440 ]
      - [  0.31260672262975, -0.00809084022078 ]
      - [  0.00015198526066,  0.00600585854758 ]
  - # 3
    frequency:    0.1490910766
    eigenvector:
    - # atom 1
      - [  0.74421569309716,  0.00000000000000 ]
      - [ -0.42955077062597,  0.01450118782574 ]
      - [  0.00000000000002,  0.00000000000000 ]
    - # atom 2
      - [  0.31309093561923, -0.00246419729092 ]
      - [ -0.18075967452280,  0.00183292814407 ]
      - [  0.00002797607411, -0.00000023606037 ]
    - # atom 3
      - [  0.31309093561923, -0.00246419729092 ]
      - [ -0.18075967452280,  0.00183292814407 ]
      - [ -0.00002797607409,  0.00000023606037 ]
  - # 4
    frequency:    6.5910522973
    eigenvector:
    - # atom 1
      - [  0.00000000000000,  0.00000000000000 ]
      - [  0.00000000000000, -0.00000000000000 ]
      - [  0.00002126800640,  0.01658748381563 ]
    - # atom 2
      - [ -0.35348296233375, -0.00327604521316 ]
      - [ -0.61223940783234,  0.00293809189569 ]
      - [  0.00000957477327,  0.00746762031218 ]
    - # atom 3
      - [  0.35348296233375,  0.00327604521316 ]
      - [  0.61223940783234, -0.00293809189569 ]
      - [  0.00000957477327,  0.00746762031218 ]
  - # 5
    frequency:    6.5895772465
    eigenvector:
    - # atom 1
      - [  0.00000000000000,  0.00000000000000 ]
      - [  0.00000000000000,  0.00000000000000 ]
      - [  0.00017225809231,  0.00001035999296 ]
    - # atom 2
      - [  0.61112741991084,  0.03890977113323 ]
      - [ -0.35313284017359, -0.01750532983454 ]
      - [  0.00022778066623,  0.00001369924665 ]
    - # atom 3
      - [ -0.61112741991084, -0.03890977113323 ]
      - [  0.35313284017359,  0.01750532983454 ]
      - [  0.00022778066623,  0.00001369924665 ]
  - # 6
    frequency:    8.4527229936
    eigenvector:
    - # atom 1
      - [  0.25543000960459,  0.00000000000000 ]
      - [  0.44141749609147,  0.02427019171093 ]
      - [  0.00000000000000,  0.00000000000000 ]
    - # atom 2
      - [ -0.30431542630433,  0.00713601417568 ]
      - [ -0.52522004472711, -0.03300717229022 ]
      - [  0.00030304929784, -0.00735316505302 ]
    - # atom 3
      - [ -0.30431542630433,  0.00713601417568 ]
      - [ -0.52522004472711, -0.03300717229022 ]
      - [ -0.00030304929784,  0.00735316505302 ]
  - # 7
    frequency:    8.4522985429
    eigenvector:
    - # atom 1
      - [ -0.44270762809187,  0.00000000000000 ]
      - [  0.25540614109003,  0.01398113252961 ]
      - [  0.00000000000000,  0.00000000000000 ]
    - # atom 2
      - [  0.52601608092389, -0.00416075500452 ]
      - [ -0.30333691310389, -0.02381693539695 ]
      - [  0.00057873092757,  0.00000791560136 ]
    - # atom 3
      - [  0.52601608092389, -0.00416075500452 ]
      - [ -0.30333691310389, -0.02381693539695 ]
      - [ -0.00057873092757, -0.00000791560136 ]
  - # 8
    frequency:   10.7694749628
    eigenvector:
    - # atom 1
      - [  0.00000000000000,  0.00000000000000 ]
      - [ -0.00000000000000, -0.00000000000000 ]
      - [  0.41183812410738,  0.30320869777272 ]
    - # atom 2
      - [ -0.00003293210598,  0.00023628319204 ]
      - [ -0.00026824660822,  0.00025375733973 ]
      - [ -0.48932673409706, -0.36025834702050 ]
    - # atom 3
      - [  0.00003293210598, -0.00023628319204 ]
      - [  0.00026824660822, -0.00025375733973 ]
      - [ -0.48932673409706, -0.36025834702050 ]
  - # 9
    frequency:   11.5084448611
    eigenvector:
    - # atom 1
      - [ -0.00632179748147,  0.00000000000000 ]
      - [ -0.01091322791398,  0.00072854307280 ]
      - [ -0.00000000000000,  0.00000000000000 ]
    - # atom 2
      - [  0.00164671015633,  0.00015351860200 ]
      - [  0.00282500007041, -0.00027752080020 ]
      - [ -0.03532675223849, -0.70615963527366 ]
    - # atom 3
      - [  0.00164671015633,  0.00015351860200 ]
      - [  0.00282500007041, -0.00027752080020 ]
      - [  0.03532675223849,  0.70615963527366 ]

- q-position: [    0.0100000,    0.0100000,    0.0000000 ]
  distance:    0.0059880
  band:
  - # 1
    frequency:   -0.0509169769
    eigenvector:
    - # atom 1
      - [ -0.00000000000000,  0.00000000000000 ]
      - [  0.00000000000000, -0.00000000000000 ]
      - [  0.51303121100870,  0.68905597178988 ]
    - # atom 2
      - [  0.00818578602023, -0.00642721646571 ]
      - [  0.01454607517464, -0.01063816598825 ]
      - [  0.21579090894254,  0.28983034808442 ]
    - # atom 3
      - [ -0.00818578602023,  0.00642721646571 ]
      - [ -0.01454607517463,  0.01063816598824 ]
      - [  0.21579090894254,  0.28983034808442 ]
  - # 2
    frequency:    0.3289300805
    eigenvector:
    - # atom 1
      - [  0.43038611196027,  0.00000000000000 ]
      - [  0.74400733036762, -0.03784765014034 ]
      - [  0.00000000000000, -0.00000000000000 ]
    - # atom 2
      - [  0.18003494037201, -0.00638549047785 ]
      - [  0.31178745651774, -0.01216681043752 ]
      - [ -0.00034383973639, -0.00901661786525 ]
    - # atom 3
      - [  0.18003494037201, -0.00638549047785 ]
      - [  0.31178745651774, -0.01216681043752 ]
      - [  0.00034383973639,  0.00901661786525 ]
  - # 3
    frequency:    0.2232018666
    eigenvector:
    - # atom 1
      - [  0.74431509659812,  0.00000000000000 ]
      - [ -0.42945244848318,  0.02186111443310 ]
      - [  0.00000000000000,  0.00000000000000 ]
    - # atom 2
      - [  0.31288013619603, -0.00371060068164 ]
      - [ -0.18063352342542,  0.00276397078525 ]
      - [  0.00006378192130, -0.00000081130465 ]
    - # atom 3
      - [  0.31288013619603, -0.00371060068164 ]
      - [ -0.18063352342542,  0.00276397078525 ]
      - [ -0.00006378192130,  0.00000081130465 ]
  - # 4
    frequency:    6.5967920617
    eigenvector:
    - # atom 1
      - [  0.00000000000000,  0.00000000000000 ]
      - [ -0.00000000000000, -0.00000000000000 ]
      - [ -0.00005176639783,  0.02483291003837 ]
    - # atom 2
      - [ -0.35337293050738, -0.00634059582928 ]
      - [ -0.61208684784339,  0.00195949787778 ]
      - [ -0.00002329533918,  0.01117503026046 ]
    - # atom 3
      - [  0.35337293050738,  0.00634059582928 ]
      - [  0.61208684784340, -0.00195949787778 ]
      - [ -0.00002329533918,  0.01117503026046 ]
  - # 5
    frequency:    6.5934800312
    eigenvector:
    - # atom 1
      - [ -0.00000000000000, -0.00000000000000 ]
      - [  0.00000000000000,  0.00000000000000 ]
      - [ -0.00038696203949, -0.00003125167189 ]
    - # atom 2
      - [ -0.61009943961169, -0.05251249417123 ]
      - [  0.35284143469443,  0.02288438374728 ]
      - [ -0.00051148818538, -0.00004130860216 ]
    - # atom 3
      - [  0.61009943961169,  0.05251249417123 ]
      - [ -0.35284143469443, -0.02288438374728 ]
      - [ -0.00051148818538, -0.00004130860216 ]
  - # 6
    frequency:    8.4441300913
    eigenvector:
    - # atom 1
      - [  0.25496748568446,  0.00000000000000 ]
      - [  0.43958474363647,  0.03452965036288 ]
      - [ -0.00000000000000, -0.00000000000000 ]
    - # atom 2
      - [ -0.30491131302299,  0.01068833480401 ]
      - [ -0.52424447981869, -0.04737916123217 ]
      - [  0.00064366184400, -0.01093826656847 ]
    - # atom 3
      - [ -0.30491131302299,  0.01068833480401 ]
      - [ -0.52424447981869, -0.04737916123217 ]
      - [ -0.00064366184400,  0.01093826656847 ]
  - # 7
    frequency:    8.4431496948
    eigenvector:
    - # atom 1
      - [ -0.44233991549072,  0.00000000000000 ]
      - [  0.25500004548696,  0.01982849137732 ]
      - [ -0.00000000000000, -0.00000000000000 ]
    - # atom 2
      - [  0.52584008318313, -0.00630322144642 ]
      - [ -0.30285365861646, -0.03448351385033 ]
      - [  0.00127588644917,  0.00002477478658 ]
    - # atom 3
      - [  0.52584008318313, -0.00630322144642 ]
      - [ -0.30285365861646, -0.03448351385033 ]
      - [ -0.00127588644917, -0.00002477478658 ]
  - # 8
    frequency:   10.7661618809
    eigenvector:
    - # atom 1
      - [ -0.00000000000000,  0.00000000000000 ]
      - [  0.00000000000000, -0.00000000000000 ]
      - [ -0.50038739979422,  0.10486404332190 ]
    - # atom 2
      - [ -0.00031456567209, -0.00025576307919 ]
      - [  0.00003247789917, -0.00056398146723 ]
      - [  0.59478624868833, -0.12464680560576 ]
    - # atom 3
      - [  0.00031456567209,  0.00025576307919 ]
      - [ -0.00003247789917,  0.00056398146723 ]
      - [  0.59478624868833, -0.12464680560577 ]
  - # 9
    frequency:   11.5066200712
    eigenvector:
    - # atom 1
      - [ -0.00947692013593,  0.00000000000000 ]
      - [ -0.01629223720100,  0.00163127308190 ]
      - [ -0.00000000000000, -0.00000000000000 ]
    - # atom 2
      - [  0.00247105649050,  0.00034418022914 ]
      - [  0.00418887000922, -0.00061961775470 ]
      - [ -0.05284128760122, -0.70498559428987 ]
    - # atom 3
      - [  0.00247105649050,  0.00034418022914 ]
      - [  0.00418887000922, -0.00061961775470 ]
      - [  0.05284128760122,  0.70498559428988 ]

- q-position: [    0.0133333,    0.0133333,    0.0000000 ]
  distance:    0.0079840
  band:
  - # 1
    frequency:   -0.0664951716
    eigenvector:
    - # atom 1
      - [ -0.00000000000000,  0.00000000000000 ]
      - [  0.00000000000000, -0.00000000000000 ]
      - [  0.74668100915985,  0.42452313201374 ]
    - # atom 2
      - [  0.00642552599148, -0.01226058307862 ]
      - [  0.01208083286323, -0.02069498312585 ]
      - [  0.31386909100973,  0.17844928145110 ]
    - # atom 3
      - [ -0.00642552599148,  0.01226058307862 ]
      - [ -0.01208083286323,  0.02069498312584 ]
      - [  0.31386909100973,  0.17844928145110 ]
  - # 2
    frequency:    0.4373127687
    eigenvector:
    - # atom 1
      - [  0.43098162637614,  0.00000000000000 ]
      - [  0.74388239980460, -0.05080080661612 ]
      - [  0.00000000000000, -0.00000000000000 ]
    - # atom 2
      - [  0.17938947044358, -0.00851660727924 ]
      - [  0.31063347507029, -0.01627936061171 ]
      - [ -0.00061595577181, -0.01203652748422 ]
    - # atom 3
      - [  0.17938947044358, -0.00851660727924 ]
      - [  0.31063347507029, -0.01627936061171 ]
      - [  0.00061595577181,  0.01203652748422 ]
  - # 3
    frequency:    0.2968517913
    eigenvector:
    - # atom 1
      - [  0.74445231948743,  0.00000000000000 ]
      - [ -0.42930842870624,  0.02935361528935 ]
      - [  0.00000000000000,  0.00000000000000 ]
    - # atom 2
      - [  0.31258398770260, -0.00497431636159 ]
      - [ -0.18045609000270,  0.00371270905188 ]
      - [  0.00011548908068, -0.00000197239061 ]
    - # atom 3
      - [  0.31258398770260, -0.00497431636159 ]
      - [ -0.18045609000270,  0.00371270905189 ]
      - [ -0.00011548908068,  0.00000197239061 ]
  - # 4
    frequency:    6.6048006918
    eigenvector:
    - # atom 1
      - [  0.00000000000000,  0.00000000000000 ]
      - [ -0.00000000000000, -0.00000000000000 ]
      - [  0.00099376259172,  0.03300610197527 ]
    - # atom 2
      - [ -0.35332150256064,  0.00314396746347 ]
      - [ -0.61145018962037,  0.02273647819437 ]
      - [  0.00044694019765,  0.01484434397443 ]
    - # atom 3
      - [  0.35332150256064, -0.00314396746347 ]
      - [  0.61145018962037, -0.02273647819437 ]
      - [  0.00044694019765,  0.01484434397443 ]
  - # 5
    frequency:    6.5989295349
    eigenvector:
    - # atom 1
      - [  0.00000000000000,  0.00000000000000 ]
      - [ -0.00000000000000,  0.00000000000000 ]
      - [ -0.00068985886208,  0.00001519197486 ]
    - # atom 2
      - [ -0.61227274528520,  0.00917196866230 ]
      - [  0.35327667360829, -0.01524740021111 ]
      - [ -0.00091135724694,  0.00002006978116 ]
    - # atom 3
      - [  0.61227274528520, -0.00917196866230 ]
      - [ -0.35327667360829,  0.01524740021111 ]
      - [ -0.00091135724694,  0.00002006978116 ]
  - # 6
    frequency:    8.4321885666
    eigenvector:
    - # atom 1
      - [  0.25427055999786,  0.00000000000000 ]
      - [  0.43727566612809,  0.04278344157954 ]
      - [ -0.00000000000000,  0.00000000000000 ]
    - # atom 2
      - [ -0.30565129976018,  0.01423304066615 ]
      - [ -0.52324161020776, -0.05947076889331 ]
      - [  0.00105656506087, -0.01442420887328 ]
    - # atom 3
      - [ -0.30565129976018,  0.01423304066615 ]
      - [ -0.52324161020776, -0.05947076889331 ]
      - [ -0.00105656506087,  0.01442420887328 ]
  - # 7
    frequency:    8.4303832588
    eigenvector:
    - # atom 1
      - [ -0.44185141173462,  0.00000000000000 ]
      - [  0.25451716666463,  0.02444341120178 ]
      - [  0.00000000000000,  0.00000000000000 ]
    - # atom 2
      - [  0.52564660803169, -0.00851482159799 ]
      - [ -0.30231419547370, -0.04381581125536 ]
      - [  0.00220705996766,  0.00005289927942 ]
    - # atom 3
      - [  0.52564660803169, -0.00851482159799 ]
      - [ -0.30231419547370, -0.04381581125536 ]
      - [ -0.00220705996766, -0.00005289927942 ]
  - # 8
    frequency:   10.7615302397
    eigenvector:
    - # atom 1
      - [ -0.00000000000000,  0.00000000000000 ]
      - [  0.00000000000000, -0.00000000000000 ]
      - [ -0.50452847976797,  0.08128793010371 ]
    - # atom 2
      - [ -0.00051484233692, -0.00034252640769 ]
      - [  0.00014293756359, -0.00075997579268 ]
      - [  0.60006138444400, -0.09667987008196 ]
    - # atom 3
      - [  0.00051484233692,  0.00034252640769 ]
      - [ -0.00014293756359,  0.00075997579268 ]
      - [  0.60006138444400, -0.09667987008196 ]
  - # 9
    frequency:   11.5040710063
    eigenvector:
    - # atom 1
      - [ -0.01262513376049,  0.00000000000000 ]
      - [ -0.02157996360978,  0.00288049485290 ]
      - [ -0.00000000000000,  0.00000000000000 ]
    - # atom 2
      - [  0.00329639437798,  0.00060882956748 ]
      - [  0.00549557268866, -0.00108973879639 ]
      - [ -0.07017974588787, -0.70336013853980 ]
    - # atom 3
      - [  0.00329639437798,  0.00060882956748 ]
      - [  0.00549557268866, -0.00108973879639 ]
      - [  0.07017974588787,  0.70336013853980 ]

- q-position: [    0.0166666,    0.0166666,    0.0000000 ]
  distance:    0.0099800
  band:
  - # 1
    frequency:   -0.0808429471
    eigenvector:
    - # atom 1
      - [ -0.00000000000000,  0.00000000000000 ]
      - [  0.00000000000000, -0.00000000000000 ]
      - [  0.65787469749118,  0.55194547885205 ]
    - # atom 2
      - [  0.01050887116977, -0.01367708474008 ]
      - [  0.01951113857579, -0.02259097616615 ]
      - [  0.27631275409852,  0.23182161581140 ]
    - # atom 3
      - [ -0.01050887116977,  0.01367708474008 ]
      - [ -0.01951113857579,  0.02259097616615 ]
      - [  0.27631275409852,  0.23182161581140 ]
  - # 2
    frequency:    0.5446281021
    eigenvector:
    - # atom 1
      - [  0.43175367388693,  0.00000000000000 ]
      - [  0.74368828022130, -0.06404640997225 ]
      - [ -0.00000000000000, -0.00000000000000 ]
    - # atom 2
      - [  0.17855508649347, -0.01064906883519 ]
      - [  0.30913775122269, -0.02044053801025 ]
      - [ -0.00097190605599, -0.01506821661141 ]
    - # atom 3
      - [  0.17855508649347, -0.01064906883519 ]
      - [  0.30913775122269, -0.02044053801025 ]
      - [  0.00097190605599,  0.01506821661141 ]
  - # 3
    frequency:    0.3698794598
    eigenvector:
    - # atom 1
      - [  0.74462532323588,  0.00000000000000 ]
      - [ -0.42911207902078,  0.03702519010212 ]
      - [  0.00000000000000,  0.00000000000000 ]
    - # atom 2
      - [  0.31220145338480, -0.00626136243165 ]
      - [ -0.18022653632890,  0.00468537904839 ]
      - [  0.00018471940353, -0.00000397900163 ]
    - # atom 3
      - [  0.31220145338480, -0.00626136243165 ]
      - [ -0.18022653632890,  0.00468537904839 ]
      - [ -0.00018471940353,  0.00000397900163 ]
  - # 4
    frequency:    6.6150514988
    eigenvector:
    - # atom 1
      - [  0.00000000000000,  0.00000000000000 ]
      - [  0.00000000000000, -0.00000000000000 ]
      - [  0.00223564136256,  0.04107278830963 ]
    - # atom 2
      - [ -0.35308019925896,  0.00981157906256 ]
      - [ -0.61037384447262,  0.03865451882977 ]
      - [  0.00100470703197,  0.01845829117687 ]
    - # atom 3
      - [  0.35308019925896, -0.00981157906256 ]
      - [  0.61037384447262, -0.03865451882977 ]
      - [  0.00100470703197,  0.01845829117687 ]
  - # 5
    frequency:    6.6059114682
    eigenvector:
    - # atom 1
      - [ -0.00000000000000,  0.00000000000000 ]
      - [  0.00000000000000,  0.00000000000000 ]
      - [  0.00107091295398, -0.00012230320075 ]
    - # atom 2
      - [  0.60895733822056, -0.06411543399904 ]
      - [ -0.35016791106910,  0.04939635342064 ]
      - [  0.00141375455014, -0.00016145729298 ]
    - # atom 3
      - [ -0.60895733822056,  0.06411543399904 ]
      - [  0.35016791106910, -0.04939635342064 ]
      - [  0.00141375455014, -0.00016145729298 ]
  - # 6
    frequency:    8.4169861674
    eigenvector:
    - # atom 1
      - [  0.25330615962589,  0.00000000000000 ]
      - [  0.43465596500849,  0.04870241228154 ]
      - [ -0.00000000000000, -0.00000000000000 ]
    - # atom 2
      - [ -0.30646815400821,  0.01778313242069 ]
      - [ -0.52245918525416, -0.06890414956007 ]
      - [  0.00149166000005, -0.01779190702405 ]
    - # atom 3
      - [ -0.30646815400821,  0.01778313242069 ]
      - [ -0.52245918525416, -0.06890414956007 ]
      - [ -0.00149166000005,  0.01779190702405 ]
  - # 7
    frequency:    8.4140419826
    eigenvector:
    - # atom 1
      - [ -0.44125885081112,  0.00000000000000 ]
      - [  0.25401220870076,  0.02761168541429 ]
      - [  0.00000000000000,  0.00000000000000 ]
    - # atom 2
      - [  0.52547310869518, -0.01081104175636 ]
      - [ -0.30181394350217, -0.05158830589344 ]
      - [  0.00333542463703,  0.00009044206210 ]
    - # atom 3
      - [  0.52547310869518, -0.01081104175636 ]
      - [ -0.30181394350217, -0.05158830589344 ]
      - [ -0.00333542463703, -0.00009044206210 ]
  - # 8
    frequency:   10.7555866915
    eigenvector:
    - # atom 1
      - [  0.00000000000000,  0.00000000000000 ]
      - [  0.00000000000000, -0.00000000000000 ]
      - [  0.35430438714914,  0.36787543840011 ]
    - # atom 2
      - [  0.00011300350365,  0.00087485310762 ]
      - [ -0.00093933517121,  0.00033675031578 ]
      - [ -0.42171171322795, -0.43786469208153 ]
    - # atom 3