nqpoint: 303    
npath: 3      
segment_nqpoint:
- 101
- 101
- 101
reciprocal_lattice:
- [   0.31446541,   0.18155669,   0.00000000 ] # a*
- [   0.00000000,   0.36311338,   0.00000000 ] # b*
- [   0.00000000,   0.00000000,   0.03125000 ] # c*
natom: 3      
lattice:
- [     3.180000000000000,     0.000000000000000,     0.000000000000000 ] # a
- [    -1.590000000000000,     2.753960784034515,     0.000000000000000 ] # b
- [     0.000000000000000,     0.000000000000000,    32.000000000000000 ] # c
points:
- symbol: W # 1
  coordinates: [  0.000000000000000,  0.000000000000000,  0.500000000000000 ]
  mass: 183.840000
- symbol: S # 2
  coordinates: [  0.666666666666672,  0.333333333333336,  0.549182783058617 ]
  mass: 32.065000
- symbol: S # 3
  coordinates: [  0.666666666666672,  0.333333333333336,  0.450817216941383 ]
  mass: 32.065000

phonon:
- q-position: [    0.0000000,    0.0000000,    0.0000000 ]
  distance:    0.0000000
  band:
  - # 1
    frequency:   -0.0025258723
    eigenvector:
    - # atom 1
      - [  0.00000000000000,  0.00000000000000 ]
      - [ -0.00000000041225,  0.00000000000000 ]
      - [  0.86103934739021,  0.00000000000000 ]
    - # atom 2
      - [  0.00000000000000,  0.00000000000000 ]
      - [ -0.00000000017218,  0.00000000000000 ]
      - [  0.35959090800926,  0.00000000000000 ]
    - # atom 3
      - [ -0.00000000000000,  0.00000000000000 ]
      - [ -0.00000000017218,  0.00000000000000 ]
      - [  0.35959090800926,  0.00000000000000 ]
  - # 2
    frequency:    0.0028155780
    eigenvector:
    - # atom 1
      - [ -0.80798970228673,  0.00000000000000 ]
      - [ -0.29750485760807,  0.00000000000000 ]
      - [ -0.00000000014244,  0.00000000000000 ]
    - # atom 2
      - [ -0.33746447651519,  0.00000000000000 ]
      - [ -0.12425569379077,  0.00000000000000 ]
      - [ -0.00000000005949,  0.00000000000000 ]
    - # atom 3
      - [ -0.33746447651519,  0.00000000000000 ]
      - [ -0.12425569379077,  0.00000000000000 ]
      - [ -0.00000000005949,  0.00000000000000 ]
  - # 3
    frequency:    0.0028155780
    eigenvector:
    - # atom 1
      - [ -0.29750485760807,  0.00000000000000 ]
      - [  0.80798970228673,  0.00000000000000 ]
      - [  0.00000000038686,  0.00000000000000 ]
    - # atom 2
      - [ -0.12425569379077,  0.00000000000000 ]
      - [  0.33746447651519,  0.00000000000000 ]
      - [  0.00000000016156,  0.00000000000000 ]
    - # atom 3
      - [ -0.12425569379077,  0.00000000000000 ]
      - [  0.33746447651519,  0.00000000000000 ]
      - [  0.00000000016156,  0.00000000000000 ]
  - # 4
    frequency:    8.6130068787
    eigenvector:
    - # atom 1
      - [  0.00000000000000,  0.00000000000000 ]
      - [  0.00000000000000,  0.00000000000000 ]
      - [  0.00000000000000,  0.00000000000000 ]
    - # atom 2
      - [ -0.57831222291942,  0.00000000000000 ]
      - [  0.40688447109960,  0.00000000000000 ]
      - [ -0.00000000000000,  0.00000000000000 ]
    - # atom 3
      - [  0.57831222291942,  0.00000000000000 ]
      - [ -0.40688447109960,  0.00000000000000 ]
      - [  0.00000000000000,  0.00000000000000 ]
  - # 5
    frequency:    8.6130068787
    eigenvector:
    - # atom 1
      - [  0.00000000000000,  0.00000000000000 ]
      - [  0.00000000000000,  0.00000000000000 ]
      - [ -0.00000000000000,  0.00000000000000 ]
    - # atom 2
      - [  0.40688447109960,  0.00000000000000 ]
      - [  0.57831222291942,  0.00000000000000 ]
      - [ -0.00000000000000,  0.00000000000000 ]
    - # atom 3
      - [ -0.40688447109960,  0.00000000000000 ]
      - [ -0.57831222291942,  0.00000000000000 ]
      - [ -0.00000000000000,  0.00000000000000 ]
  - # 6
    frequency:   10.3491302869
    eigenvector:
    - # atom 1
      - [ -0.50857005485793,  0.00000000000000 ]
      - [  0.00000000000000,  0.00000000000000 ]
      - [  0.00000000000000,  0.00000000000000 ]
    - # atom 2
      - [  0.60883351554501,  0.00000000000000 ]
      - [ -0.00000000000000,  0.00000000000000 ]
      - [ -0.00000000000000,  0.00000000000000 ]
    - # atom 3
      - [  0.60883351554501,  0.00000000000000 ]
      - [  0.00000000000000,  0.00000000000000 ]
      - [ -0.00000000000000,  0.00000000000000 ]
  - # 7
    frequency:   10.3491302869
    eigenvector:
    - # atom 1
      - [  0.00000000000000,  0.00000000000000 ]
      - [  0.50857005485793,  0.00000000000000 ]
      - [ -0.00000000000000,  0.00000000000000 ]
    - # atom 2
      - [  0.00000000000000,  0.00000000000000 ]
      - [ -0.60883351554501,  0.00000000000000 ]
      - [  0.00000000000000,  0.00000000000000 ]
    - # atom 3
      - [ -0.00000000000000,  0.00000000000000 ]
      - [ -0.60883351554501,  0.00000000000000 ]
      - [  0.00000000000000,  0.00000000000000 ]
  - # 8
    frequency:   12.1850096082
    eigenvector:
    - # atom 1
      - [  0.00000000000000,  0.00000000000000 ]
      - [ -0.00000000000000,  0.00000000000000 ]
      - [ -0.00000000000000,  0.00000000000000 ]
    - # atom 2
      - [ -0.00000000000000,  0.00000000000000 ]
      - [  0.00000000000000,  0.00000000000000 ]
      - [  0.70710678118655,  0.00000000000000 ]
    - # atom 3
      - [  0.00000000000000,  0.00000000000000 ]
      - [ -0.00000000000000,  0.00000000000000 ]
      - [ -0.70710678118655,  0.00000000000000 ]
  - # 9
    frequency:   12.7910105166
    eigenvector:
    - # atom 1
      - [  0.00000000000000,  0.00000000000000 ]
      - [  0.00000000000000,  0.00000000000000 ]
      - [  0.50853833901275,  0.00000000000000 ]
    - # atom 2
      - [  0.00000000000000,  0.00000000000000 ]
      - [ -0.00000000000000,  0.00000000000000 ]
      - [ -0.60884676140806,  0.00000000000000 ]
    - # atom 3
      - [ -0.00000000000000,  0.00000000000000 ]
      - [ -0.00000000000000,  0.00000000000000 ]
      - [ -0.60884676140806,  0.00000000000000 ]

- q-position: [    0.0033333,    0.0033333,    0.0000000 ]
  distance:    0.0020964
  band:
  - # 1
    frequency:    0.0159758927
    eigenvector:
    - # atom 1
      - [ -0.00000000000003,  0.00000000000000 ]
      - [  0.00000000000007, -0.00000000000000 ]
      - [ -0.85455641552195,  0.10516379113525 ]
    - # atom 2
      - [  0.00047680781385,  0.00365662294405 ]
      - [  0.00076485284451,  0.00634096384104 ]
      - [ -0.35686674074336,  0.04391688916609 ]
    - # atom 3
      - [ -0.00047680781388, -0.00365662294405 ]
      - [ -0.00076485284446, -0.00634096384104 ]
      - [ -0.35686674074336,  0.04391688916609 ]
  - # 2
    frequency:    0.1164840259
    eigenvector:
    - # atom 1
      - [ -0.43052996690748,  0.00000000000000 ]
      - [ -0.74569732881521,  0.00156013128875 ]
      - [ -0.00000000000005,  0.00000000000000 ]
    - # atom 2
      - [ -0.17977587629347,  0.00115491575542 ]
      - [ -0.31138411460791, -0.00001532222459 ]
      - [  0.00000436463577,  0.00278156070836 ]
    - # atom 3
      - [ -0.17977587629347,  0.00115491575542 ]
      - [ -0.31138411460791, -0.00001532222459 ]
      - [ -0.00000436463581, -0.00278156070835 ]
  - # 3
    frequency:    0.0740889933
    eigenvector:
    - # atom 1
      - [  0.74566560908712,  0.00000000000000 ]
      - [ -0.43050976938265,  0.00090035932746 ]
      - [ -0.00000000000006,  0.00000000000001 ]
    - # atom 2
      - [  0.31143265027779, -0.00066662799700 ]
      - [ -0.17980633278528, -0.00077859153587 ]
      - [ -0.00000745310327,  0.00000000389681 ]
    - # atom 3
      - [  0.31143265027779, -0.00066662799700 ]
      - [ -0.17980633278528, -0.00077859153587 ]
      - [  0.00000745310322, -0.00000000389681 ]
  - # 4
    frequency:    8.6133311514
    eigenvector:
    - # atom 1
      - [ -0.00000000000000,  0.00000000000000 ]
      - [  0.00000000000000, -0.00000000000000 ]
      - [ -0.00003062224145, -0.00000010646790 ]
    - # atom 2
      - [ -0.61236925198273, -0.00195996215803 ]
      - [  0.35355019445328,  0.00152217747484 ]
      - [ -0.00001683343993, -0.00000005852678 ]
    - # atom 3
      - [  0.61236925198273,  0.00195996215803 ]
      - [ -0.35355019445328, -0.00152217747484 ]
      - [ -0.00001683343993, -0.00000005852678 ]
  - # 5
    frequency:    8.6139392175
    eigenvector:
    - # atom 1
      - [ -0.00000000000000,  0.00000000000000 ]
      - [  0.00000000000000, -0.00000000000000 ]
      - [  0.00004623342894, -0.00841506717643 ]
    - # atom 2
      - [  0.35353017364169,  0.00164965329124 ]
      - [  0.61232850923780,  0.00353319132826 ]
      - [  0.00002432350507, -0.00442718469822 ]
    - # atom 3
      - [ -0.35353017364169, -0.00164965329124 ]
      - [ -0.61232850923780, -0.00353319132826 ]
      - [  0.00002432350507, -0.00442718469822 ]
  - # 6
    frequency:   10.3490135161
    eigenvector:
    - # atom 1
      - [ -0.44035680630340,  0.00000000000000 ]
      - [  0.25406100098003,  0.01349539020385 ]
      - [ -0.00000000000000,  0.00000000000000 ]
    - # atom 2
      - [  0.52713886696661, -0.00113137067641 ]
      - [ -0.30409467502589, -0.01811408700455 ]
      - [  0.00016150886065,  0.00000214365165 ]
    - # atom 3
      - [  0.52713886696661, -0.00113137067641 ]
      - [ -0.30409467502589, -0.01811408700455 ]
      - [ -0.00016150886065, -0.00000214365165 ]
  - # 7
    frequency:   10.3490709245
    eigenvector:
    - # atom 1
      - [ -0.25436186451800,  0.00000000000000 ]
      - [ -0.43963677034905, -0.02336594704569 ]
      - [ -0.00000000000000,  0.00000000000000 ]
    - # atom 2
      - [  0.30464037573962, -0.00195039434465 ]
      - [  0.52635853393674,  0.02910350643074 ]
      - [ -0.00020650387772,  0.00518331264617 ]
    - # atom 3
      - [  0.30464037573962, -0.00195039434465 ]
      - [  0.52635853393674,  0.02910350643074 ]
      - [  0.00020650387772, -0.00518331264617 ]
  - # 8
    frequency:   12.1848543249
    eigenvector:
    - # atom 1
      - [  0.00355978097157,  0.00000000000000 ]
      - [  0.00616484221540, -0.00008501674101 ]
      - [ -0.00000000000000,  0.00000000000000 ]
    - # atom 2
      - [ -0.00152734509109, -0.00000149067667 ]
      - [ -0.00264502643218,  0.00003733721019 ]
      - [  0.00731265327226,  0.70704444873289 ]
    - # atom 3
      - [ -0.00152734509109, -0.00000149067667 ]
      - [ -0.00264502643218,  0.00003733721019 ]
      - [ -0.00731265327225, -0.70704444873289 ]
  - # 9
    frequency:   12.7901953778
    eigenvector:
    - # atom 1
      - [ -0.00000000000000,  0.00000000000000 ]
      - [ -0.00000000000000, -0.00000000000000 ]
      - [  0.50850915348338,  0.00464048673212 ]
    - # atom 2
      - [ -0.00000024483553,  0.00039307282046 ]
      - [ -0.00000814194513,  0.00068075166531 ]
      - [ -0.60882424968835, -0.00555592919718 ]
    - # atom 3
      - [  0.00000024483553, -0.00039307282046 ]
      - [  0.00000814194513, -0.00068075166531 ]
      - [ -0.60882424968835, -0.00555592919718 ]

- q-position: [    0.0066667,    0.0066667,    0.0000000 ]
  distance:    0.0041929
  band:
  - # 1
    frequency:    0.0326719936
    eigenvector:
    - # atom 1
      - [ -0.00000000000001,  0.00000000000000 ]
      - [  0.00000000000002,  0.00000000000000 ]
      - [ -0.72563893956668, -0.46323515554354 ]
    - # atom 2
      - [ -0.00387512463073,  0.00626801799919 ]
      - [ -0.00691908628582,  0.01072426968791 ]
      - [ -0.30298751816774, -0.19342191061301 ]
    - # atom 3
      - [  0.00387512463072, -0.00626801799919 ]
      - [  0.00691908628584, -0.01072426968791 ]
      - [ -0.30298751816775, -0.19342191061301 ]
  - # 2
    frequency:    0.2328399387
    eigenvector:
    - # atom 1
      - [ -0.43058893253765,  0.00000000000000 ]
      - [ -0.74579209505330,  0.00312382011747 ]
      - [ -0.00000000000001, -0.00000000000001 ]
    - # atom 2
      - [ -0.17968345520860,  0.00231226013236 ]
      - [ -0.31123355354572, -0.00003137065477 ]
      - [  0.00001748094255,  0.00556463610411 ]
    - # atom 3
      - [ -0.17968345520860,  0.00231226013236 ]
      - [ -0.31123355354572, -0.00003137065477 ]
      - [ -0.00001748094256, -0.00556463610411 ]
  - # 3
    frequency:    0.1480886973
    eigenvector:
    - # atom 1
      - [  0.74566528537788,  0.00000000000000 ]
      - [ -0.43050817075489,  0.00180047479590 ]
      - [ -0.00000000000002, -0.00000000000001 ]
    - # atom 2
      - [  0.31142771472527, -0.00133368072442 ]
      - [ -0.17980530899912, -0.00155802964154 ]
      - [ -0.00002981844965,  0.00000003117664 ]
    - # atom 3
      - [  0.31142771472527, -0.00133368072442 ]
      - [ -0.17980530899912, -0.00155802964154 ]
      - [  0.00002981844964, -0.00000003117665 ]
  - # 4
    frequency:    8.6143034048
    eigenvector:
    - # atom 1
      - [  0.00000000000000,  0.00000000000000 ]
      - [ -0.00000000000000,  0.00000000000000 ]
      - [  0.00012247964037,  0.00000161191231 ]
    - # atom 2
      - [  0.61232357081391,  0.00772056532838 ]
      - [ -0.35351490688139, -0.00523794524556 ]
      - [  0.00006735163539,  0.00000088639165 ]
    - # atom 3
      - [ -0.61232357081391, -0.00772056532838 ]
      - [  0.35351490688140,  0.00523794524556 ]
      - [  0.00006735163539,  0.00000088639165 ]
  - # 5
    frequency:    8.6167330347
    eigenvector:
    - # atom 1
      - [ -0.00000000000000,  0.00000000000000 ]
      - [  0.00000000000000, -0.00000000000000 ]
      - [ -0.00004880038329, -0.01681353644221 ]
    - # atom 2
      - [  0.35347238013970, -0.00160922397319 ]
      - [  0.61223603117888, -0.00144021976549 ]
      - [ -0.00002568384636, -0.00884903473232 ]
    - # atom 3
      - [ -0.35347238013970,  0.00160922397319 ]
      - [ -0.61223603117888,  0.00144021976549 ]
      - [ -0.00002568384636, -0.00884903473232 ]
  - # 6
    frequency:   10.3486630648
    eigenvector:
    - # atom 1
      - [  0.44012544386733,  0.00000000000000 ]
      - [ -0.25339671780252, -0.02685109968464 ]
      - [  0.00000000000000, -0.00000000000000 ]
    - # atom 2
      - [ -0.52676290566771,  0.00227990018575 ]
      - [  0.30313806072382,  0.03608188948610 ]
      - [ -0.00064352666797, -0.00001701203178 ]
    - # atom 3
      - [ -0.52676290566771,  0.00227990018575 ]
      - [  0.30313806072382,  0.03608188948610 ]
      - [  0.00064352666797,  0.00001701203178 ]
  - # 7
    frequency:   10.3488934671
    eigenvector:
    - # atom 1
      - [  0.25458863073169,  0.00000000000000 ]
      - [  0.43726931131390,  0.04643884764462 ]
      - [  0.00000000000000,  0.00000000000000 ]
    - # atom 2
      - [ -0.30530443647827,  0.00387571525640 ]
      - [ -0.52366940560723, -0.05787123891082 ]
      - [  0.00082059312744, -0.01032404087986 ]
    - # atom 3
      - [ -0.30530443647827,  0.00387571525640 ]
      - [ -0.52366940560723, -0.05787123891082 ]
      - [ -0.00082059312744,  0.01032404087986 ]
  - # 8
    frequency:   12.1843889217
    eigenvector:
    - # atom 1
      - [ -0.00711871625766,  0.00000000000000 ]
      - [ -0.01232294773757,  0.00033989980334 ]
      - [  0.00000000000000,  0.00000000000000 ]
    - # atom 2
      - [  0.00305488211669,  0.00000591136610 ]
      - [  0.00528791175736, -0.00014926960201 ]
      - [ -0.01462067865463, -0.70685754984780 ]
    - # atom 3
      - [  0.00305488211669,  0.00000591136610 ]
      - [  0.00528791175736, -0.00014926960201 ]
      - [  0.01462067865463,  0.70685754984780 ]
  - # 9
    frequency:   12.7877510294
    eigenvector:
    - # atom 1
      - [  0.00000000000000,  0.00000000000000 ]
      - [ -0.00000000000000, -0.00000000000000 ]
      - [ -0.50682993187284,  0.04125563983072 ]
    - # atom 2
      - [ -0.00007720410795, -0.00078343619751 ]
      - [ -0.00010290369879, -0.00135945984325 ]
      - [  0.60685099102122, -0.04939729156085 ]
    - # atom 3
      - [  0.00007720410795,  0.00078343619751 ]
      - [  0.00010290369879,  0.00135945984325 ]
      - [  0.60685099102122, -0.04939729156085 ]

- q-position: [    0.0100000,    0.0100000,    0.0000000 ]
  distance:    0.0062893
  band:
  - # 1
    frequency:    0.0501216198
    eigenvector:
    - # atom 1
      - [ -0.00000000000000,  0.00000000000000 ]
      - [  0.00000000000000, -0.00000000000000 ]
      - [ -0.83479403418429, -0.20963590886523 ]
    - # atom 2
      - [ -0.00245583184159,  0.01076219050504 ]
      - [ -0.00478977637868,  0.01850602099164 ]
      - [ -0.34848275642615, -0.08751200460918 ]
    - # atom 3
      - [  0.00245583184159, -0.01076219050504 ]
      - [  0.00478977637869, -0.01850602099164 ]
      - [ -0.34848275642615, -0.08751200460918 ]
  - # 2
    frequency:    0.3490530823
    eigenvector:
    - # atom 1
      - [ -0.43068716589256,  0.00000000000000 ]
      - [ -0.74594989464350,  0.00469460900341 ]
      - [  0.00000000000000, -0.00000000000000 ]
    - # atom 2
      - [ -0.17952925945312,  0.00347445859743 ]
      - [ -0.31098243459733, -0.00004888235690 ]
      - [  0.00003941600299,  0.00835073637633 ]
    - # atom 3
      - [ -0.17952925945312,  0.00347445859743 ]
      - [ -0.31098243459733, -0.00004888235690 ]
      - [ -0.00003941600299, -0.00835073637633 ]
  - # 3
    frequency:    0.2220881645
    eigenvector:
    - # atom 1
      - [  0.74566483289810,  0.00000000000000 ]
      - [ -0.43050555834766,  0.00270009162193 ]
      - [ -0.00000000000000, -0.00000000000000 ]
    - # atom 2
      - [  0.31141936636699, -0.00200158167752 ]
      - [ -0.17980353469390, -0.00233916387361 ]
      - [ -0.00006711431927,  0.00000010523294 ]
    - # atom 3
      - [  0.31141936636699, -0.00200158167752 ]
      - [ -0.17980353469390, -0.00233916387361 ]
      - [  0.00006711431927, -0.00000010523295 ]
  - # 4
    frequency:    8.6159219494
    eigenvector:
    - # atom 1
      - [ -0.00000000000000,  0.00000000000000 ]
      - [  0.00000000000000, -0.00000000000000 ]
      - [ -0.00027560096284,  0.00000149889227 ]
    - # atom 2
      - [ -0.61235996071729,  0.00383668451897 ]
      - [  0.35355254689039, -0.00104593272609 ]
      - [ -0.00015163945171,  0.00000082471120 ]
    - # atom 3
      - [  0.61235996071729, -0.00383668451897 ]
      - [ -0.35355254689039,  0.00104593272609 ]
      - [ -0.00015163945171,  0.00000082471120 ]
  - # 5
    frequency:    8.6213787626
    eigenvector:
    - # atom 1
      - [  0.00000000000000,  0.00000000000000 ]
      - [  0.00000000000000, -0.00000000000000 ]
      - [ -0.00071174738027, -0.02516852196284 ]
    - # atom 2
      - [  0.35321295310159, -0.01085870370988 ]
      - [  0.61183955989166, -0.01680002252944 ]
      - [ -0.00037483576932, -0.01325479032909 ]
    - # atom 3
      - [ -0.35321295310159,  0.01085870370988 ]
      - [ -0.61183955989166,  0.01680002252944 ]
      - [ -0.00037483576932, -0.01325479032908 ]
  - # 6
    frequency:   10.3480785344
    eigenvector:
    - # atom 1
      - [  0.43974630047922,  0.00000000000000 ]
      - [ -0.25231504130289, -0.03993226102227 ]
      - [ -0.00000000000000, -0.00000000000000 ]
    - # atom 2
      - [ -0.52614711590290,  0.00346231998345 ]
      - [  0.30157518749014,  0.05376263515028 ]
      - [ -0.00143866179564, -0.00005665706721 ]
    - # atom 3
      - [ -0.52614711590290,  0.00346231998345 ]
      - [  0.30157518749014,  0.05376263515028 ]
      - [  0.00143866179564,  0.00005665706721 ]
  - # 7
    frequency:   10.3485997896
    eigenvector:
    - # atom 1
      - [ -0.25495438317890,  0.00000000000000 ]
      - [ -0.43340794914476, -0.06894082901621 ]
      - [ -0.00000000000000, -0.00000000000000 ]
    - # atom 2
      - [  0.30638910162597, -0.00575205382783 ]
      - [  0.51928866319461,  0.08598527633971 ]
      - [ -0.00182642766367,  0.01538181001052 ]
    - # atom 3
      - [  0.30638910162597, -0.00575205382783 ]
      - [  0.51928866319461,  0.08598527633971 ]
      - [  0.00182642766367, -0.01538181001052 ]
  - # 8
    frequency:   12.1836147339
    eigenvector:
    - # atom 1
      - [ -0.01067594619586,  0.00000000000000 ]
      - [ -0.01846757474294,  0.00076414817314 ]
      - [ -0.00000000000000, -0.00000000000000 ]
    - # atom 2
      - [  0.00458278705553,  0.00001310853836 ]
      - [  0.00792650544138, -0.00033555953009 ]
      - [ -0.02191948271854, -0.70654637961451 ]
    - # atom 3
      - [  0.00458278705553,  0.00001310853836 ]
      - [  0.00792650544138, -0.00033555953009 ]
      - [  0.02191948271854,  0.70654637961451 ]
  - # 9
    frequency:   12.7836806736
    eigenvector:
    - # atom 1
      - [  0.00000000000000,  0.00000000000000 ]
      - [  0.00000000000000,  0.00000000000000 ]
      - [ -0.50809439077273, -0.01943602916224 ]
    - # atom 2
      - [  0.00001504833236, -0.00118346789555 ]
      - [  0.00009575864363, -0.00204716052771 ]
      - [  0.60842738541688,  0.02327404635994 ]
    - # atom 3
      - [ -0.00001504833236,  0.00118346789555 ]
      - [ -0.00009575864363,  0.00204716052771 ]
      - [  0.60842738541688,  0.02327404635994 ]

- q-position: [    0.0133333,    0.0133333,    0.0000000 ]
  distance:    0.0083857
  band:
  - # 1
    frequency:    0.0687364380
    eigenvector:
    - # atom 1
      - [ -0.00000000000000,  0.00000000000000 ]
      - [  0.00000000000000,  0.00000000000000 ]
      - [  0.57903292071603,  0.63648937376079 ]
    - # atom 2
      - [  0.01057606964989, -0.01019631681298 ]
      - [  0.01897923437583, -0.01693400998255 ]
      - [  0.24163599582322,  0.26561312519053 ]
    - # atom 3
      - [ -0.01057606964989,  0.01019631681298 ]
      - [ -0.01897923437583,  0.01693400998255 ]
      - [  0.24163599582322,  0.26561312519053 ]
  - # 2
    frequency:    0.4650379758
    eigenvector:
    - # atom 1
      - [ -0.43082460203258,  0.00000000000000 ]
      - [ -0.74617050994471,  0.00627601011974 ]
      - [  0.00000000000000,  0.00000000000000 ]
    - # atom 2
      - [ -0.17931304852932,  0.00464393026085 ]
      - [ -0.31063048299190, -0.00006861615550 ]
      - [  0.00007028123242,  0.01114136266793 ]
    - # atom 3
      - [ -0.17931304852932,  0.00464393026085 ]
      - [ -0.31063048299190, -0.00006861615550 ]
      - [ -0.00007028123242, -0.01114136266793 ]
  - # 3
    frequency:    0.2960649213
    eigenvector:
    - # atom 1
      - [  0.74566438211501,  0.00000000000000 ]
      - [ -0.43050201020094,  0.00359893307257 ]
      - [  0.00000000000000,  0.00000000000000 ]
    - # atom 2
      - [  0.31140742163154, -0.00267075186300 ]
      - [ -0.17980090785723, -0.00312284977094 ]
      - [ -0.00011937174657,  0.00000024947927 ]
    - # atom 3
      - [  0.31140742163154, -0.00267075186300 ]
      - [ -0.17980090785723, -0.00312284977094 ]
      - [  0.00011937174657, -0.00000024947926 ]
  - # 4
    frequency:    8.6181839799
    eigenvector:
    - # atom 1
      - [  0.00000000000000,  0.00000000000000 ]
      - [ -0.00000000000000,  0.00000000000000 ]
      - [  0.00048996018846, -0.00000298568854 ]
    - # atom 2
      - [  0.61235573084016, -0.00440527674165 ]
      - [ -0.35355322717985,  0.00098750506832 ]
      - [  0.00026979777846, -0.00000164407671 ]
    - # atom 3
      - [ -0.61235573084016,  0.00440527674165 ]
      - [  0.35355322717985, -0.00098750506832 ]
      - [  0.00026979777846, -0.00000164407671 ]
  - # 5
    frequency:    8.6278605554
    eigenvector:
    - # atom 1
      - [ -0.00000000000000,  0.00000000000000 ]
      - [ -0.00000000000000, -0.00000000000000 ]
      - [ -0.00001016203731, -0.03349371550315 ]
    - # atom 2
      - [  0.35324375059235, -0.00125720633654 ]
      - [  0.61183692928120,  0.00047833899363 ]
      - [ -0.00000535656451, -0.01765504714832 ]
    - # atom 3
      - [ -0.35324375059235,  0.00125720633654 ]
      - [ -0.61183692928120, -0.00047833899363 ]
      - [ -0.00000535656451, -0.01765504714832 ]
  - # 6
    frequency:   10.3472593167
    eigenvector:
    - # atom 1
      - [  0.43922859880280,  0.00000000000000 ]
      - [ -0.25085239406472, -0.05261319635673 ]
      - [ -0.00000000000000, -0.00000000000000 ]
    - # atom 2
      - [ -0.52530695874738,  0.00469454082477 ]
      - [  0.29945116001308,  0.07102606828186 ]
      - [ -0.00253502738471, -0.00013184404462 ]
    - # atom 3
      - [ -0.52530695874738,  0.00469454082477 ]
      - [  0.29945116001308,  0.07102606828186 ]
      - [  0.00253502738471,  0.00013184404462 ]
  - # 7
    frequency:   10.3481929714
    eigenvector:
    - # atom 1
      - [ -0.25544181336842,  0.00000000000000 ]
      - [ -0.42817183470400, -0.09062257055029 ]
      - [ -0.00000000000000, -0.00000000000000 ]
    - # atom 2
      - [  0.30786302735100, -0.00755769850392 ]
      - [  0.51335909913622,  0.11316128120228 ]
      - [ -0.00319896341346,  0.02032040391951 ]
    - # atom 3
      - [  0.30786302735100, -0.00755769850392 ]
      - [  0.51335909913622,  0.11316128120228 ]
      - [  0.00319896341346, -0.02032040391951 ]
  - # 8
    frequency:   12.1825339697
    eigenvector:
    - # atom 1
      - [ -0.01423058344912,  0.00000000000000 ]
      - [ -0.02459197143466,  0.00135692839848 ]
      - [ -0.00000000000000, -0.00000000000000 ]
    - # atom 2
      - [  0.00611120418991,  0.00002282794743 ]
      - [  0.01055863826782, -0.00059581116401 ]
      - [ -0.02920454076943, -0.70611142868400 ]
    - # atom 3
      - [  0.00611120418990,  0.00002282794743 ]
      - [  0.01055863826782, -0.00059581116401 ]
      - [  0.02920454076943,  0.70611142868400 ]
  - # 9
    frequency:   12.7779896402
    eigenvector:
    - # atom 1
      - [ -0.00000000000000,  0.00000000000000 ]
      - [ -0.00000000000000,  0.00000000000000 ]
      - [  0.50218435648442,  0.07931555186477 ]
    - # atom 2
      - [ -0.00019362259845,  0.00157128234878 ]
      - [ -0.00045827022667,  0.00270212894406 ]
      - [ -0.60143705364589, -0.09499163246700 ]
    - # atom 3
      - [  0.00019362259845, -0.00157128234878 ]
      - [  0.00045827022667, -0.00270212894406 ]
      - [ -0.60143705364589, -0.09499163246700 ]

- q-position: [    0.0166666,    0.0166666,    0.0000000 ]
  distance:    0.0104822
  band:
  - # 1
    frequency:    0.0888376004
    eigenvector:
    - # atom 1
      - [ -0.00000000000000,  0.00000000000000 ]
      - [  0.00000000000001, -0.00000000000000 ]
      - [ -0.60601693749632,  0.61040545971986 ]
    - # atom 2
      - [  0.01345962319593,  0.01242712503643 ]
      - [  0.02223229149822,  0.02261269592226 ]
      - [ -0.25278870931324,  0.25461929984635 ]
    - # atom 3
      - [ -0.01345962319593, -0.01242712503643 ]
      - [ -0.02223229149821, -0.02261269592227 ]
      - [ -0.25278870931324,  0.25461929984635 ]
  - # 2
    frequency:    0.5807160379
    eigenvector:
    - # atom 1
      - [ -0.43100114822572,  0.00000000000000 ]
      - [ -0.74645363342960,  0.00787148937480 ]
      - [ -0.00000000000001, -0.00000000000000 ]
    - # atom 2
      - [ -0.17903448659313,  0.00582308458250 ]
      - [ -0.31017731605914, -0.00009136360324 ]
      - [  0.00011023178032,  0.01393800242916 ]
    - # atom 3
      - [ -0.17903448659313,  0.00582308458249 ]
      - [ -0.31017731605914, -0.00009136360324 ]
      - [ -0.00011023178033, -0.01393800242916 ]
  - # 3
    frequency:    0.3700071052
    eigenvector:
    - # atom 1
      - [  0.74566411552398,  0.00000000000000 ]
      - [ -0.43049763571400,  0.00449668923732 ]
      - [ -0.00000000000001,  0.00000000000000 ]
    - # atom 2
      - [  0.31139162369109, -0.00334160850954 ]
      - [ -0.17979728561964, -0.00390995186712 ]
      - [ -0.00018663537510,  0.00000048735698 ]
    - # atom 3
      - [  0.31139162369109, -0.00334160850954 ]
      - [ -0.17979728561964, -0.00390995186713 ]
      - [  0.00018663537510, -0.00000048735698 ]
  - # 4
    frequency:    8.6210855925
    eigenvector:
    - # atom 1
      - [ -0.00000000000000,  0.00000000000000 ]
      - [  0.00000000000000, -0.00000000000000 ]
      - [  0.00075956954119, -0.00009579286890 ]
    - # atom 2
      - [  0.60745278889653, -0.07745543540123 ]
      - [ -0.35095577755493,  0.04279410988641 ]
      - [  0.00041868756801, -0.00005280264826 ]
    - # atom 3
      - [ -0.60745278889653,  0.07745543540123 ]
      - [  0.35095577755493, -0.04279410988641 ]
      - [  0.00041868756801, -0.00005280264826 ]
  - # 5
    frequency:    8.6361564371
    eigenvector:
    - # atom 1
      - [ -0.00000000000000,  0.00000000000000 ]
      - [ -0.00000000000000, -0.00000000000000 ]
      - [  0.00844640368525,  0.04087950031035 ]
    - # atom 2
      - [ -0.34548134071691,  0.07283449971016 ]
      - [ -0.59905577503731,  0.12293676721123 ]
      - [  0.00445739007065,  0.02157319085931 ]
    - # atom 3
      - [  0.34548134071691, -0.07283449971016 ]
      - [  0.59905577503731, -0.12293676721123 ]
      - [  0.00445739007065,  0.02157319085931 ]
  - # 6
    frequency:   10.3462046756
    eigenvector:
    - # atom 1
      - [  0.43858437791170,  0.00000000000000 ]
      - [ -0.24905645559671, -0.06478099068473 ]
      - [ -0.00000000000000,  0.00000000000000 ]
    - # atom 2
      - [ -0.52426266500488,  0.00599132226323 ]
      - [  0.29682515819633,  0.08775652132136 ]
      - [ -0.00391683583144, -0.00025154632149 ]
    - # atom 3
      - [ -0.52426266500488,  0.00599132226323 ]
      - [  0.29682515819633,  0.08775652132136 ]
      - [  0.00391683583144,  0.00025154632149 ]
  - # 7
    frequency:   10.3476772305
    eigenvector:
    - # atom 1
      - [ -0.25602849772975,  0.00000000000000 ]
      - [ -0.42171409849620, -0.11127346032144 ]
      - [ -0.00000000000000, -0.00000000000000 ]
    - # atom 2
      - [  0.30968567395254, -0.00927393121080 ]
      - [  0.50606426058181,  0.13916042244063 ]
      - [ -0.00490576755497,  0.02510924600675 ]
    - # atom 3
      - [  0.30968567395254, -0.00927393121080 ]
      - [  0.50606426058181,  0.13916042244063 ]
      - [  0.00490576755497, -0.02510924600675 ]
  - # 8
    frequency:   12.1811496863
    eigenvector:
    - # atom 1
      - [ -0.01778169986295,  0.00000000000000 ]
      - [ -0.03068937176825,  0.00211707698128 ]
      - [  0.00000000000000,  0.00000000000000 ]
    - # atom 2
      - [  0.00764023079332,  0.00003471707854 ]
      - [  0.01318211342505, -0.00092947088598 ]
      - [ -0.03647143074010, -0.70555338152063 ]
    - # atom 3